LAMMPS Description

667  atoms
0  bonds
0  angles
0  dihedrals
0  impropers

1  atom types
0  bond types
0  angle types
0  dihedral types
0  improper types

0.0 26.5 xlo xhi
0.0 26.5 ylo yhi
0.0 26.6 zlo zhi

Masses

1 15.9994  # Fe

Atoms

1 1 22.586 0.176 9.877
2 1 13.313 20.941 17.839
3 1 21.263 7.439 0.932
4 1 14.211 22.629 21.318
5 1 18.153 19.796 8.964
6 1 3.648 0.157 15.255
7 1 3.931 6.658 12.126
8 1 5.334 2.779 10.695
9 1 12.776 4.717 18.534
10 1 22.571 23.471 5.108
11 1 2.158 20.484 1.211
12 1 10.951 16.257 9.750
13 1 1.605 14.938 4.973
14 1 15.327 16.322 4.762
15 1 14.387 14.773 23.575
16 1 5.284 5.543 8.369
17 1 8.585 11.879 22.622
18 1 10.781 19.624 18.720
19 1 3.261 1.798 0.013
20 1 4.226 2.250 13.930
21 1 21.548 14.618 15.068
22 1 14.259 22.477 24.497
23 1 8.462 0.105 17.718
24 1 4.273 4.081 18.152
25 1 9.116 24.151 10.987
26 1 5.283 5.899 10.565
27 1 7.275 7.389 0.502
28 1 19.555 14.325 11.479
29 1 14.172 22.495 6.332
30 1 0.085 5.193 1.816
31 1 19.830 11.538 15.395
32 1 19.623 4.016 17.372
33 1 19.824 5.308 15.068
34 1 10.048 1.237 15.114
35 1 2.156 20.758 16.969
36 1 0.692 9.429 22.467
37 1 4.718 24.481 24.438
38 1 3.945 10.358 5.461
39 1 21.761 7.616 10.637
40 1 13.561 6.059 12.152
41 1 14.410 2.741 12.248
42 1 10.336 22.606 4.066
43 1 2.308 15.830 18.951
44 1 11.403 0.020 9.701
45 1 12.093 23.594 17.367
46 1 17.289 16.887 21.767
47 1 8.458 0.092 21.748
48 1 15.560 17.265 9.164
49 1 0.087 13.077 9.909
50 1 8.901 3.906 16.612
51 1 6.493 21.165 16.983
52 1 4.985 15.286 16.695
53 1 22.303 10.285 11.167
54 1 11.503 6.066 8.487
55 1 6.016 0.002 17.179
56 1 20.648 17.625 11.884
57 1 20.474 6.971 20.243
58 1 17.204 9.093 11.202
59 1 23.469 18.993 15.577
60 1 0.535 9.445 3.054
61 1 17.911 8.120 17.458
62 1 6.478 11.039 13.886
63 1 1.208 13.879 0.078
64 1 2.703 21.294 23.895
65 1 22.245 21.901 0.399
66 1 2.278 7.010 4.027
67 1 11.897 1.282 16.351
68 1 2.172 6.601 15.333
69 1 0.138 20.769 23.536
70 1 19.769 6.410 10.110
71 1 6.978 2.946 7.861
72 1 0.087 24.369 16.075
73 1 9.057 8.536 15.718
74 1 12.428 16.869 17.711
75 1 4.162 6.807 16.937
76 1 3.369 20.491 8.772
77 1 16.891 19.873 11.977
78 1 2.698 11.968 15.555
79 1 9.370 20.458 6.765
80 1 6.282 7.737 11.725
81 1 17.738 0.632 18.259
82 1 0.319 21.245 21.025
83 1 4.574 7.428 3.907
84 1 12.750 12.405 0.785
85 1 16.849 5.875 15.267
86 1 16.173 0.850 9.523
87 1 19.122 12.296 6.815
88 1 13.570 19.777 12.931
89 1 20.414 4.985 12.697
90 1 4.564 9.359 22.991
91 1 9.729 23.157 22.340
92 1 10.620 24.024 24.364
93 1 9.652 5.790 14.232
94 1 9.225 10.065 23.867
95 1 10.659 8.417 7.458
96 1 12.478 12.741 4.188
97 1 13.724 8.395 8.529
98 1 20.377 21.662 12.054
99 1 14.374 1.952 22.622
100 1 18.279 18.841 19.749
101 1 9.479 6.365 12.097
102 1 12.261 1.969 0.355
103 1 12.152 13.035 9.026
104 1 5.554 23.392 7.851
105 1 20.211 10.836 20.581
106 1 7.622 23.480 24.036
107 1 17.823 24.347 24.476
108 1 16.319 17.318 2.672
109 1 21.561 4.371 4.836
110 1 19.791 8.474 9.189
111 1 19.078 8.106 0.257
112 1 0.211 0.074 20.909
113 1 18.483 14.945 22.321
114 1 5.725 2.324 17.272
115 1 15.447 1.195 5.766
116 1 4.861 1.484 19.692
117 1 14.450 23.947 17.000
118 1 10.716 5.285 20.273
119 1 15.250 4.022 1.745
120 1 7.490 9.438 12.767
121 1 23.118 18.236 21.335
122 1 3.540 4.128 12.982
123 1 22.038 4.542 17.093
124 1 23.567 21.620 2.596
125 1 3.700 15.945 1.151
126 1 6.082 12.949 21.678
127 1 7.220 19.186 0.002
128 1 3.377 15.004 3.086
129 1 19.699 7.451 12.121
130 1 9.349 2.298 20.809
131 1 1.576 0.473 12.542
132 1 7.529 21.206 21.149
133 1 19.174 21.226 7.243
134 1 5.476 11.801 2.324
135 1 6.904 5.091 20.465
136 1 8.856 6.722 4.001
137 1 6.066 20.589 6.101
138 1 23.689 12.520 12.390
139 1 3.893 11.176 0.427
140 1 17.100 21.894 15.527
141 1 9.644 4.148 11.461
142 1 3.033 21.293 20.973
143 1 9.384 22.506 18.120
144 1 4.666 1.371 6.367
145 1 11.766 14.858 5.042
146 1 4.360 16.319 4.863
147 1 18.118 10.775 9.613
148 1 12.994 10.336 6.839
149 1 12.802 15.889 19.715
150 1 5.534 13.333 19.111
151 1 7.441 13.046 15.990
152 1 18.440 22.361 19.140
153 1 0.364 14.540 2.192
154 1 6.495 10.499 24.294
155 1 0.673 7.885 14.285
156 1 17.377 0.439 23.500
157 1 7.482 11.697 9.716
158 1 19.483 2.009 18.872
159 1 0.851 18.079 7.072
160 1 0.121 6.635 4.274
161 1 16.168 12.537 13.677
162 1 1.426 22.374 13.303
163 1 0.037 22.574 11.608
164 1 2.708 11.810 11.817
165 1 2.948 19.075 12.870
166 1 10.445 2.560 17.694
167 1 7.324 9.321 10.044
168 1 3.452 14.734 11.077
169 1 22.279 17.282 13.867
170 1 19.107 5.223 21.186
171 1 0.009 14.389 21.891
172 1 5.848 9.471 -0.080
173 1 9.677 10.130 8.770
174 1 11.591 21.591 19.306
175 1 15.522 2.659 7.419
176 1 11.040 21.173 22.295
177 1 12.004 8.357 15.598
178 1 3.244 7.598 23.793
179 1 14.066 5.026 14.716
180 1 17.457 3.684 7.185
181 1 2.067 1.622 2.456
182 1 4.118 17.424 17.961
183 1 24.498 19.994 20.091
184 1 17.192 8.296 4.462
185 1 16.035 19.753 17.828
186 1 8.111 21.426 15.139
187 1 12.276 2.096 12.636
188 1 14.793 9.768 19.077
189 1 13.715 10.543 1.479
190 1 7.454 1.709 22.861
191 1 3.273 7.837 7.089
192 1 23.940 15.116 0.958
193 1 2.762 7.902 18.522
194 1 3.714 3.242 1.610
195 1 16.860 22.918 22.827
196 1 14.840 17.515 16.718
197 1 12.589 20.998 14.849
198 1 15.982 5.960 11.543
199 1 21.173 9.697 23.675
200 1 14.595 9.742 3.551
201 1 21.470 22.298 7.501
202 1 21.769 2.906 15.123
203 1 16.449 10.076 1.741
204 1 8.460 0.016 12.159
205 1 6.894 20.963 24.359
206 1 23.768 1.022 20.924
207 1 19.784 22.262 1.011
208 1 2.629 12.179 18.418
209 1 19.755 5.674 7.673
210 1 6.597 22.301 1.407
211 1 15.360 4.964 19.128
212 1 21.154 15.592 17.380
213 1 7.331 3.271 2.671
214 1 5.859 9.305 4.223
215 1 17.222 14.390 11.043
216 1 15.620 17.080 13.328
217 1 5.946 5.593 0.066
218 1 14.629 0.727 3.363
219 1 8.494 15.567 4.316
220 1 13.158 16.908 8.821
221 1 21.814 0.604 19.500
222 1 21.667 13.810 21.694
223 1 4.831 21.635 10.873
224 1 23.821 0.759 1.365
225 1 20.629 0.030 13.974
226 1 22.242 1.575 17.055
227 1 16.657 23.842 20.320
228 1 6.234 8.069 6.591
229 1 24.164 0.817 6.349
230 1 15.203 7.934 13.793
231 1 16.652 1.969 1.877
232 1 2.315 5.832 9.296
233 1 13.405 17.449 5.947
234 1 10.638 11.110 20.792
235 1 2.183 10.796 3.645
236 1 11.242 3.306 7.106
237 1 10.527 17.247 0.069
238 1 0.040 16.053 23.775
239 1 17.676 8.872 8.389
240 1 10.364 12.923 12.578
241 1 20.845 12.827 4.232
242 1 23.748 20.264 8.408
243 1 14.128 7.576 18.394
244 1 3.967 17.141 10.529
245 1 14.051 18.814 10.301
246 1 6.016 13.603 10.948
247 1 21.355 0.440 24.019
248 1 18.764 22.661 10.648
249 1 5.968 23.892 14.103
250 1 16.777 23.326 17.457
251 1 16.799 10.007 22.617
252 1 22.582 18.426 10.776
253 1 23.239 15.425 11.128
254 1 7.694 11.185 4.336
255 1 4.972 8.651 17.861
256 1 20.006 15.700 5.385
257 1 0.886 23.971 9.744
258 1 5.652 12.064 7.643
259 1 3.658 9.857 19.153
260 1 4.409 3.963 24.101
261 1 16.940 13.257 5.161
262 1 16.032 24.492 13.704
263 1 21.133 14.875 24.499
264 1 20.777 12.898 13.656
265 1 10.436 20.454 16.676
266 1 17.070 10.725 4.333
267 1 10.673 8.623 12.380
268 1 13.614 12.406 15.161
269 1 23.529 8.042 7.137
270 1 6.814 6.278 16.638
271 1 16.101 19.524 9.890
272 1 9.279 16.644 1.906
273 1 21.016 9.288 14.837
274 1 11.288 17.279 7.157
275 1 4.488 23.483 20.398
276 1 17.384 14.804 16.985
277 1 16.421 18.696 4.707
278 1 12.586 6.360 16.905
279 1 9.643 17.135 23.506
280 1 20.036 18.007 14.719
281 1 11.280 24.466 21.469
282 1 13.919 7.058 23.233
283 1 10.927 18.649 24.472
284 1 2.865 2.501 19.302
285 1 15.641 3.832 9.560
286 1 12.895 0.000 12.382
287 1 12.547 20.410 11.077
288 1 3.405 4.177 10.347
289 1 10.814 19.607 14.135
290 1 19.490 8.809 21.758
291 1 0.922 2.174 0.329
292 1 18.406 18.378 24.135
293 1 9.342 10.853 12.529
294 1 8.138 17.469 6.339
295 1 19.216 16.345 9.136
296 1 12.190 20.676 3.278
297 1 12.634 10.386 21.842
298 1 6.940 15.393 12.322
299 1 3.720 19.645 22.620
300 1 0.055 11.509 7.911
301 1 21.302 4.158 19.435
302 1 17.656 4.579 2.787
303 1 8.304 8.204 17.802
304 1 0.817 8.205 10.092
305 1 6.668 0.898 15.107
306 1 10.750 18.384 4.655
307 1 16.105 7.685 19.635
308 1 8.203 17.034 18.780
309 1 14.578 4.303 22.993
310 1 3.435 0.124 1.605
311 1 13.203 12.655 11.336
312 1 22.471 19.434 3.262
313 1 10.751 13.361 20.101
314 1 12.466 18.513 19.879
315 1 20.969 24.225 12.511
316 1 8.319 17.087 11.941
317 1 16.169 3.189 4.067
318 1 0.709 16.844 14.316
319 1 12.785 12.579 22.911
320 1 10.367 2.823 2.932
321 1 15.013 0.248 11.479
322 1 7.187 16.806 21.428
323 1 3.130 12.823 3.320
324 1 13.551 1.060 14.894
325 1 9.338 13.461 5.313
326 1 14.397 24.055 19.146
327 1 13.781 15.161 0.107
328 1 0.003 0.411 1.740
329 1 0.576 1.916 19.652
330 1 10.496 12.061 18.101
331 1 3.310 5.136 0.061
332 1 21.763 13.150 8.215
333 1 14.358 14.961 2.484
334 1 11.426 23.228 6.272
335 1 12.444 17.779 23.125
336 1 18.320 17.942 12.418
337 1 11.209 6.928 10.658
338 1 22.863 10.783 2.955
339 1 19.279 2.030 14.142
340 1 23.034 10.561 0.060
341 1 2.885 16.300 24.400
342 1 15.205 6.312 4.282
343 1 13.262 20.731 22.208
344 1 6.897 24.440 2.685
345 1 5.793 14.977 20.638
346 1 5.282 10.310 11.163
347 1 5.864 4.972 2.724
348 1 1.853 24.463 14.745
349 1 12.309 16.486 1.121
350 1 24.097 8.407 4.596
351 1 0.017 11.714 3.245
352 1 15.010 20.939 19.478
353 1 2.213 14.963 15.388
354 1 12.389 1.902 9.125
355 1 22.288 23.327 20.192
356 1 19.495 4.018 9.665
357 1 11.110 22.457 11.452
358 1 10.245 12.268 3.702
359 1 9.192 22.874 1.400
360 1 18.148 4.940 11.140
361 1 18.368 18.850 3.665
362 1 7.267 19.535 10.446
363 1 23.204 12.657 14.544
364 1 7.502 5.576 10.485
365 1 0.306 2.137 6.680
366 1 4.299 22.121 0.960
367 1 14.844 12.971 4.134
368 1 1.663 9.465 12.425
369 1 12.019 3.333 23.189
370 1 1.695 19.855 19.726
371 1 23.655 17.730 6.378
372 1 11.471 10.401 1.343
373 1 24.480 23.571 16.021
374 1 15.238 11.298 9.576
375 1 18.239 5.053 24.479
376 1 4.932 8.154 20.867
377 1 0.882 1.316 10.140
378 1 18.343 1.683 4.600
379 1 14.532 11.155 17.250
380 1 16.335 12.551 16.482
381 1 15.347 20.836 8.227
382 1 24.455 5.841 22.014
383 1 2.086 5.640 19.669
384 1 1.227 7.267 6.200
385 1 -0.059 13.895 5.971
386 1 1.660 16.088 0.212
387 1 15.391 5.801 6.468
388 1 16.418 7.685 22.858
389 1 3.425 17.952 20.574
390 1 17.020 14.835 24.144
391 1 3.635 12.751 6.000
392 1 21.849 23.820 23.967
393 1 21.520 4.766 1.328
394 1 13.448 3.152 15.691
395 1 21.128 6.362 22.571
396 1 22.077 9.837 17.572
397 1 0.291 22.308 16.820
398 1 16.124 2.776 17.848
399 1 17.830 17.706 7.625
400 1 2.235 0.467 6.127
401 1 9.900 18.189 16.799
402 1 20.985 17.790 6.288
403 1 15.517 19.688 21.609
404 1 9.207 8.284 22.493
405 1 6.016 15.573 9.381
406 1 8.771 0.340 7.517
407 1 19.094 20.505 17.336
408 1 2.427 3.580 16.940
409 1 7.858 20.943 2.903
410 1 14.886 1.097 0.034
411 1 16.779 3.121 15.140
412 1 0.264 21.342 18.799
413 1 20.835 7.532 24.411
414 1 1.034 2.857 12.056
415 1 2.660 10.023 10.337
416 1 16.730 11.018 7.558
417 1 12.886 4.458 20.848
418 1 21.670 11.865 22.862
419 1 17.670 3.304 12.994
420 1 14.167 9.925 15.098
421 1 17.621 7.146 6.519
422 1 2.036 15.111 7.264
423 1 11.333 16.647 21.533
424 1 7.474 7.140 8.436
425 1 20.935 9.962 0.411
426 1 15.106 21.454 16.375
427 1 24.140 17.717 24.466
428 1 4.627 13.326 14.840
429 1 11.482 12.848 6.305
430 1 0.065 16.659 16.494
431 1 11.595 22.945 15.224
432 1 23.211 12.563 19.504
433 1 12.363 10.693 17.416
434 1 9.194 3.830 18.984
435 1 4.475 1.120 3.825
436 1 20.766 6.931 16.304
437 1 14.631 22.611 13.639
438 1 9.243 12.141 14.430
439 1 6.117 2.427 24.498
440 1 9.371 21.233 19.916
441 1 4.016 17.341 22.807
442 1 24.097 14.070 8.555
443 1 15.361 5.327 16.834
444 1 0.040 5.850 8.319
445 1 6.937 0.009 5.301
446 1 12.931 12.715 18.728
447 1 23.914 15.462 6.501
448 1 8.582 0.987 0.580
449 1 5.273 8.849 13.444
450 1 12.102 17.690 11.472
451 1 6.668 1.884 12.809
452 1 23.832 23.778 13.060
453 1 11.631 16.724 14.098
454 1 23.703 23.707 0.755
455 1 6.891 18.701 24.064
456 1 1.965 9.029 16.436
457 1 21.313 1.987 21.981
458 1 20.398 11.412 11.186
459 1 16.660 22.286 7.164
460 1 24.276 24.445 3.333
461 1 18.047 24.302 0.895
462 1 2.487 23.576 11.215
463 1 12.491 23.416 20.179
464 1 20.395 19.453 8.324
465 1 15.222 16.591 22.482
466 1 12.683 1.628 20.482
467 1 15.422 15.142 8.198
468 1 0.007 14.020 15.850
469 1 6.800 17.966 14.073
470 1 12.364 19.515 7.945
471 1 23.852 7.607 13.799
472 1 20.110 15.335 13.496
473 1 13.222 23.005 11.800
474 1 13.121 15.090 10.414
475 1 9.285 15.785 21.115
476 1 22.826 8.618 1.955
477 1 9.662 14.069 9.750
478 1 9.053 4.158 23.018
479 1 1.750 24.033 19.281
480 1 7.481 20.834 7.845
481 1 23.556 4.649 19.901
482 1 10.230 14.880 0.774
483 1 12.469 20.782 6.115
484 1 6.875 3.943 18.226
485 1 7.277 6.653 13.851
486 1 9.588 14.249 15.767
487 1 17.664 19.550 14.545
488 1 12.263 24.489 2.198
489 1 6.553 18.807 19.440
490 1 10.726 10.558 5.724
491 1 14.294 0.055 17.834
492 1 9.489 6.452 9.318
493 1 10.643 12.446 1.495
494 1 16.292 10.808 20.308
495 1 3.015 1.491 8.626
496 1 0.046 13.257 18.400
497 1 19.838 22.578 3.438
498 1 0.919 20.100 4.783
499 1 9.482 10.323 17.211
500 1 2.540 18.838 5.660
501 1 7.287 18.293 2.018
502 1 14.317 10.363 12.057
503 1 8.079 12.808 11.625
504 1 15.272 23.870 9.718
505 1 17.007 0.107 7.536
506 1 4.047 11.432 21.661
507 1 20.807 17.717 23.648
508 1 22.883 8.514 19.303
509 1 19.282 9.922 13.264
510 1 6.565 12.990 24.081
511 1 16.832 10.544 14.424
512 1 13.334 23.092 4.240
513 1 7.735 17.702 4.038
514 1 23.777 14.816 23.850
515 1 13.430 24.255 14.670
516 1 22.491 17.591 17.484
517 1 6.913 4.229 15.727
518 1 15.875 13.424 21.058
519 1 10.064 20.377 2.799
520 1 14.887 7.204 1.027
521 1 11.589 7.616 19.248
522 1 6.464 4.765 12.899
523 1 13.721 19.633 24.302
524 1 10.626 21.184 8.437
525 1 4.110 11.628 24.093
526 1 7.939 4.936 7.867
527 1 2.330 16.617 16.896
528 1 9.146 0.170 5.354
529 1 0.879 0.283 17.267
530 1 19.783 24.157 15.259
531 1 15.079 18.803 7.333
532 1 21.755 20.445 18.175
533 1 3.547 17.931 2.087
534 1 23.706 10.709 23.680
535 1 4.755 24.115 11.256
536 1 4.526 5.958 19.807
537 1 18.422 12.412 19.394
538 1 11.208 15.744 24.409
539 1 5.957 2.549 4.685
540 1 0.994 17.162 2.502
541 1 14.166 7.479 15.735
542 1 13.821 22.527 0.207
543 1 17.024 16.330 15.072
544 1 13.779 18.054 3.426
545 1 20.440 20.665 5.088
546 1 21.071 15.245 0.117
547 1 13.839 4.401 10.688
548 1 15.576 20.254 13.890
549 1 17.342 16.394 19.386
550 1 19.336 1.197 0.650
551 1 15.166 14.647 15.829
552 1 3.745 12.410 8.685
553 1 24.396 19.733 13.459
554 1 10.048 15.392 7.318
555 1 24.074 6.462 11.629
556 1 19.526 14.623 18.549
557 1 7.693 17.062 15.874
558 1 11.344 14.934 12.388
559 1 8.474 13.272 0.209
560 1 22.732 4.145 13.086
561 1 22.337 9.851 5.081
562 1 16.023 18.950 0.477
563 1 12.132 18.894 16.393
564 1 9.066 20.873 9.979
565 1 8.136 8.591 2.966
566 1 1.073 12.331 20.111
567 1 2.385 6.538 21.694
568 1 23.804 13.406 3.923
569 1 9.574 19.664 22.957
570 1 13.758 16.478 15.030
571 1 12.889 20.356 1.214
572 1 16.381 20.987 2.206
573 1 10.652 16.416 3.635
574 1 18.796 18.093 17.480
575 1 24.321 22.256 19.364
576 1 19.061 0.524 15.938
577 1 11.605 12.528 16.258
578 1 24.095 22.283 11.419
579 1 9.919 4.241 8.688
580 1 0.653 11.365 13.888
581 1 4.711 19.072 5.158
582 1 12.156 14.642 2.770
583 1 2.622 3.328 4.641
584 1 24.064 9.599 15.057
585 1 11.519 4.215 16.595
586 1 23.465 3.721 9.886
587 1 17.644 1.544 21.322
588 1 23.706 3.784 23.550
589 1 13.992 2.920 5.230
590 1 9.820 6.616 16.802
591 1 15.900 6.471 9.311
592 1 17.939 9.141 19.936
593 1 6.251 10.925 19.791
594 1 5.179 1.314 9.040
595 1 15.045 1.619 19.383
596 1 15.588 13.589 0.392
597 1 18.894 14.935 0.659
598 1 18.790 0.097 20.121
599 1 10.389 8.814 20.665
600 1 19.193 13.551 16.596
601 1 4.134 18.537 15.205
602 1 8.615 9.443 5.724
603 1 7.336 15.335 6.878
604 1 7.142 10.080 7.987
605 1 21.304 15.606 10.062
606 1 12.775 0.942 4.843
607 1 23.460 15.768 3.825
608 1 23.714 13.141 6.195
609 1 17.413 4.625 22.485
610 1 21.817 2.915 3.012
611 1 0.754 14.184 11.819
612 1 10.847 10.110 14.511
613 1 1.507 12.465 6.562
614 1 13.582 13.151 20.855
615 1 9.370 1.603 9.448
616 1 8.625 11.414 19.958
617 1 8.501 6.971 20.604
618 1 16.105 23.036 0.671
619 1 19.619 21.323 24.393
620 1 18.706 6.317 4.774
621 1 18.590 13.068 13.030
622 1 21.848 20.733 15.617
623 1 10.829 23.644 9.349
624 1 0.047 19.524 11.083
625 1 16.534 22.640 3.651
626 1 8.594 16.436 9.099
627 1 17.687 7.744 14.363
628 1 5.698 9.631 2.147
629 1 7.623 15.260 17.166
630 1 6.950 0.014 20.035
631 1 15.461 8.534 9.981
632 1 18.008 23.625 8.798
633 1 12.813 24.485 24.360
634 1 5.143 18.684 12.495
635 1 20.050 18.691 21.241
636 1 18.470 1.702 7.021
637 1 22.003 13.266 17.284
638 1 13.178 14.129 16.616
639 1 19.216 3.093 23.547
640 1 2.563 22.994 6.549
641 1 23.132 23.121 17.701
642 1 7.144 5.353 24.283
643 1 10.737 24.107 13.047
644 1 10.954 7.958 4.810
645 1 18.670 20.795 20.748
646 1 2.102 15.518 21.378
647 1 17.368 7.538 1.630
648 1 13.142 21.881 8.454
649 1 6.406 19.507 3.724
650 1 11.635 3.694 10.317
651 1 11.820 5.361 14.258
652 1 17.580 0.024 3.359
653 1 23.630 9.424 9.638
654 1 13.854 15.316 12.732
655 1 19.473 24.452 5.951
656 1 0.033 19.621 8.563
657 1 6.582 14.885 0.097
658 1 4.534 8.266 9.661
659 1 18.303 6.048 0.175
660 1 0.103 2.262 4.018
661 1 22.276 1.158 12.657
662 1 17.865 13.758 2.253
663 1 19.227 23.165 13.355
664 1 18.313 11.443 1.896
665 1 11.525 18.537 2.243
666 1 5.611 10.560 16.679
667 1 11.399 21.488 24.474

