LAMMPS data file via write_data, version 23 Jun 2022, timestep = 300000

2669 atoms
1 atom types

-4.300792166481106 30.800792166445152 xlo xhi
-4.300792166481106 30.800792166445152 ylo yhi
-4.317021570881529 30.917021570845954 zlo zhi

Masses

1 55.845

Atoms # atomic

1986 1 30.198285188015458 -2.9414247782885727 -3.4845787997510063 2 0 0
47 1 -2.7724356710529525 -2.9604829078709844 -2.0595346661595597 2 0 1
1449 1 -2.112451487482057 0.9221397842135328 -2.6816554496616263 3 1 0
1987 1 -0.1823453094433054 -2.265875545273292 -0.22361596133643857 -1 1 1
753 1 -1.1190325101752627 -1.2960309588802383 -4.265277518929392 2 0 0
193 1 2.1580174911373806 -2.047141646102954 0.690830813964185 -2 1 -1
1207 1 5.886509866173759 -2.0663290332825937 -1.310890904707553 1 3 4
1484 1 2.966108098753681 29.71449475892882 -1.650475570717835 -2 -2 1
2160 1 4.16554177031408 30.788898552995267 1.6191350614953244 3 -2 2
750 1 2.468862472766655 -2.6821084135847393 -1.5735386361722763 1 0 -2
1793 1 6.726527750918754 -0.046483255364994314 0.3853369731703795 2 3 1
895 1 4.775108491430753 -3.8573319031323288 -0.8327978910753444 1 -1 1
851 1 7.776648916022964 30.395766357900396 30.154211034236155 0 -4 -3
241 1 5.278159638850834 -1.5899842161516422 -3.949876440925405 2 0 1
371 1 9.870371842368836 -1.5826983405424633 1.677368088760736 -3 0 3
647 1 8.52482876098629 -2.419251684985989 -0.80538557196309 0 3 2
169 1 8.306540817305251 30.183589718128598 -2.9558232654911407 -2 -2 2
2091 1 10.33050800547342 30.65570686428244 -2.2517253880088384 0 1 3
2493 1 12.47586998753673 -3.6661604465130355 -2.556175843873942 0 3 0
1458 1 7.8896466905133344 -1.2504609295104565 -2.7093441716505775 2 0 2
1753 1 13.92367433965524 30.5147462295861 -4.1635515907932215 -2 -1 -1
811 1 14.470628798247592 29.6242096176743 4.03398377330041 -1 0 0
766 1 15.440065261643095 29.67450316493417 -3.104544670555364 0 -2 1
921 1 20.719571617945302 -3.0797181665932944 28.864512616501635 1 1 -1
2334 1 13.967729808267084 -2.4946540609869574 3.269468696914135 0 1 -2
1518 1 15.74266641198603 -3.314435011702817 29.305609234199103 0 -3 -2
1874 1 11.169510600436388 -1.972852574004008 -0.7079251086797171 -1 1 1
310 1 15.870724497983037 1.0967063544029756 -4.135291440972673 -1 1 1
133 1 16.269851785703448 30.278957989809573 0.9904001409539589 1 1 1
92 1 17.758118730263295 -2.505382282607637 30.352761932275847 1 -1 -1
2475 1 23.71400800510707 30.570687771094132 -3.2672750201776726 1 0 2
76 1 17.555598156454174 -2.885034810055566 0.23493773580066435 -1 4 3
948 1 16.98652977363626 -3.9004464240942536 -2.2633664082169744 0 1 1
880 1 19.887726349551187 -3.5774903550660024 0.15480388416332502 -3 3 1
615 1 24.6303808927363 -0.5866813485601483 30.185868281575495 -2 2 1
415 1 25.26727717173402 -0.3536036767247306 -2.4584426804233317 -3 3 -1
1673 1 26.34525650865915 1.116654810746362 30.222479649666255 -4 -2 -1
1088 1 30.13056108419236 -3.523296792129333 -1.4331234892962716 -1 -2 2
465 1 27.657481146388353 -1.5276470145435361 0.5423994059078732 2 0 1
159 1 29.08667489725114 -0.4419620412256262 -1.3849742016330833 1 0 1
560 1 -4.284173900210327 -2.942987598853021 0.7351819131119841 -2 0 1
126 1 28.94309565188099 30.38100257479172 -3.359415120740368 0 -1 1
2559 1 -3.938322192923936 30.46500175399345 2.198852685169446 0 0 4
621 1 -3.782597024548684 -0.3876206400579494 -1.1210446254264905 3 -1 2
1709 1 3.3794657289860623 4.144570510618971 30.806140083435288 0 1 0
800 1 -2.1303579145051725 0.07261417609513376 0.035914064586562766 2 3 5
1146 1 29.34487555610036 1.3331311650912232 -4.004716743717825 1 2 1
1002 1 -0.2865765044308439 2.99440596790303 -1.854495057977199 -1 0 -2
1859 1 0.6607383278529291 2.6016589298972654 0.36735133175518797 3 1 0
2253 1 3.9349317200303258 -1.061520537680706 -2.435461710369215 2 -2 1
2131 1 0.4472818037035129 1.4130520345247106 -3.8275040497698813 2 1 0
1229 1 8.084005799427967 1.2293589844934978 -2.2651154545998247 -3 0 1
2301 1 5.185412270334705 0.6599837843022227 -1.5519738851967384 0 1 2
2077 1 5.652916294765474 2.694965177761886 -2.7539747585954673 0 1 -3
2592 1 8.525631435139132 -1.1067037946496776 29.888258162016413 -1 1 -2
634 1 7.058738980025348 0.5260723186618321 30.49797556648545 -1 -2 -1
816 1 11.069034720808418 3.000695317638802 1.371008572565616 -1 2 -2
2411 1 5.049630189308498 0.8253255984421513 29.91899699707713 3 3 -3
308 1 6.643887593291483 3.817654172350938 28.632030464946162 3 0 1
1180 1 9.729154357657888 2.8127704045346746 -1.7159550667902645 -1 0 2
2404 1 14.507293846387263 2.4861289116768983 -1.6770176023976857 -2 -1 -2
887 1 7.922904984406328 3.2241083554094185 30.888874727605398 -1 6 -2
1006 1 12.270677741762565 5.724173340092538 -1.6063784822707392 -2 2 0
242 1 12.70203101124514 3.4414442608130136 -2.6872587757071287 0 0 -2
2058 1 16.53503970884983 1.2650156524371772 -1.4146729581689006 -2 2 3
2330 1 13.389672991740035 -1.9356693812317434 -1.655511075190227 -1 0 0
2135 1 16.45918365925489 3.9372989926606063 0.20803427636091598 -1 1 -2
333 1 16.672540889007752 3.249709736109912 -3.901217168189543 -3 2 -2
2009 1 16.04982582322056 -1.8959522468901109 -1.3072141641609711 0 1 2
2392 1 20.503492846622805 -2.027798436084734 -2.0536411062059488 3 1 -1
1969 1 20.24432866628532 3.6124694276019236 1.3387979489700372 -2 -2 1
2246 1 18.793217548738074 0.2656372400061313 -1.0380346002046443 0 -2 2
1236 1 18.088222517222484 -1.0222642985228823 -2.7546217123717076 0 -1 1
1733 1 18.771788080941416 0.31982145428222086 -4.260372534365679 0 1 0
1970 1 21.757692387973034 -0.5436858813761596 -0.16011808889539392 0 -1 0
2570 1 22.319419896916674 0.34104437872023574 -2.662420483251676 -1 -1 -1
2250 1 26.730299688537272 2.9506932036198483 29.108877124145224 2 0 -1
2086 1 25.40371292595244 1.9118196226406097 -2.381952108358823 1 0 -2
1546 1 25.666649181130968 4.8392852173105325 -3.2862827578992726 1 3 -1
2340 1 -3.5153882917765684 3.467773374974632 -3.477071169412288 1 -3 0
564 1 29.386658406287733 2.6974635074832074 -1.3186044312301655 -1 2 0
1412 1 27.117708714620196 2.203335074421382 -1.1521005115997278 0 -1 4
175 1 25.8342223628726 4.879936662394451 -0.37661248221378685 -1 0 -1
1904 1 28.594299206451954 4.6225395249479835 -0.11887761930590202 0 3 2
1479 1 29.127375018060466 4.050357266598281 -3.6258476979825733 -1 0 0
2283 1 -3.202883785846465 2.2067303206082407 -1.2042395750651869 -2 -2 -1
1101 1 -0.31759231659680065 5.084983826899103 -3.132029846645204 3 0 -1
1785 1 -2.584101053134124 5.288312852168845 -2.839439067528188 -1 3 -1
238 1 -3.4312595284640675 8.165965708342661 30.01283153227277 0 3 3
30 1 1.0638326681367012 3.9255040241303547 -4.252231817873627 1 -1 1
669 1 1.719275721497584 4.691325194773771 -1.6648546244902342 2 1 1
2067 1 0.7574721988965489 6.375246588378543 30.68600305451354 2 1 -1
1802 1 3.7830706305008306 2.7081366042224744 -1.615142368863883 1 -1 0
1946 1 4.529458000075612 6.0714738175914285 29.616977171685967 1 -2 1
27 1 3.277801092106176 6.2001997720989905 -3.149588598061202 1 1 1
1096 1 8.865248804876929 5.249997447925864 -4.2580377363264175 1 0 -2
2425 1 8.04527749786388 7.4231967589104 30.853075192084802 2 -2 -1
2427 1 6.007199680593811 4.915752059785179 -4.026704354059547 2 1 1
1761 1 9.942598603393344 5.027867994922248 -1.9361642013932512 -2 1 2
10 1 4.4831765041246285 7.641284091042271 2.749148694171569 -1 2 -1
2168 1 8.351446948185615 6.510228832298706 -1.2232061008873099 2 -1 1
99 1 12.355059489461087 2.8133660840678507 -0.39500283733339714 1 -1 -1
704 1 5.210299492930789 8.385555240623837 -2.16134290313871 0 2 1
1119 1 6.9648473338222345 6.648926050387548 28.288363481978664 -2 0 -1
1529 1 10.269055906207566 7.082698624083232 28.43028002083843 1 0 -1
901 1 9.292592591541682 9.243655582823722 29.76001240939018 0 1 0
1042 1 8.908554826243238 4.589818386659481 0.17709701898966923 -1 1 0
2371 1 17.78618591044045 8.034102875808689 2.570119465358615 0 0 0
2155 1 9.630661204539354 8.631470851465062 -0.7120428632341222 0 -2 -1
2129 1 15.566643070051192 4.839814438553333 -1.4647872863001532 0 -2 0
943 1 15.378404510954223 8.136904706211702 0.3109404036674599 0 -2 0
1247 1 13.719516489570093 7.084912100228344 -2.5920481024477273 2 -2 -1
1735 1 19.900701880455593 8.026233575543458 -2.238472894613345 -1 1 3
710 1 15.77835105770751 5.940790278367457 -3.4743054993843803 -2 -1 3
1286 1 18.188686466911307 2.8023346840334 -2.3693275050999203 -2 0 -1
1918 1 20.969045614645502 3.184207621243976 30.707489596380526 2 2 -2
1942 1 19.043447377430784 9.99023231408025 -1.355332671783807 1 0 0
928 1 17.961638821165213 5.532563095172252 -1.356114938572294 -1 -1 0
1379 1 23.496567996718817 2.7995377692859114 -3.8247009085886807 0 1 1
1329 1 19.892327753650083 3.410276716310694 -0.9911040426593694 -2 1 1
941 1 23.514394692167492 10.149216518196186 1.719829697598585 1 1 3
70 1 25.743675085125236 8.884135778272656 29.514614720427197 -2 -1 -1
1573 1 28.429103894594878 9.144646453393028 30.536299876886197 1 0 1
2507 1 27.322564437608996 6.308384140712276 -1.352768640071936 -3 1 2
2336 1 -2.7184719197932363 5.232740297661303 0.0985729568099245 -1 -1 -2
385 1 19.912979530511844 5.2626047188077205 -2.38082837340355 -1 1 1
2409 1 26.641373595053267 8.118975328022152 -3.235954886903092 0 -2 2
2300 1 -3.6406957945612204 7.239905671018876 -2.397805658273162 1 -1 -1
856 1 -1.7724006130481267 9.063244454880444 -1.9268804773327695 1 0 0
1039 1 1.8520641928328967 8.249200963685087 -3.6782767054381935 1 -2 3
1371 1 -2.5633742976700864 12.684762367202861 1.0882450312396923 2 -2 0
1800 1 -1.8818839921252306 12.866999996456574 -1.7079316546753405 0 -1 1
651 1 -3.6124043934383954 10.284770331190202 0.21547732351680882 1 0 1
2464 1 -3.1923600150608387 14.435190489736023 -2.986661547999394 -2 -1 1
450 1 2.5749021317000667 8.80912590569389 -1.0176737334821104 1 2 1
2261 1 1.1018096175844931 10.475174493933155 -1.3959013241113225 2 0 0
553 1 -0.7404090034214104 9.954751929222901 0.058223963339385065 -2 1 2
251 1 2.7895179947752187 13.819693580875615 -2.4916334219315335 2 0 3
1750 1 3.847998033555598 11.392348214536621 -2.7763877008690736 1 4 4
872 1 5.947757160590813 15.886191784740184 -2.114473268493507 3 -2 1
736 1 5.836467870644508 6.156141941056745 -1.951628934120829 2 1 -3
1327 1 5.848339874074016 13.49603597673162 -0.3562735358213236 2 0 2
1311 1 7.371591575847443 11.721262321128407 -2.7465620024046697 -3 -1 2
1503 1 9.475316937786605 11.51733978317096 -3.6472801447692462 0 2 -4
331 1 8.270139628486046 13.625955202906052 -1.756732797475602 0 2 -1
1352 1 10.096710741096357 14.882252797560025 -2.853485394303708 0 -1 -2
65 1 11.783658060724242 9.383969493813904 -2.0163770554481695 3 0 1
529 1 13.309584490886973 12.69617491252933 -2.9222573063619777 2 -1 -3
1596 1 13.800423183424549 10.672434445099867 -1.1760625334561188 0 -2 -2
1111 1 15.583135547453573 8.17190868056013 -2.0702830294797896 1 -1 2
808 1 13.747548274202334 13.488964858765105 0.01351390374689121 -1 -1 -1
2231 1 15.801177575225836 10.723113982737587 -2.1075800768496524 0 2 0
999 1 16.948206796585527 9.755117452724356 -4.184801458759187 -4 -1 1
1063 1 18.577242943957938 12.393294858888886 0.2648685098454697 -3 0 3
1044 1 17.87736399711812 11.674644973469395 -1.7829351149753263 0 1 2
45 1 18.832063405277953 4.6369173910469925 30.88331851680899 -2 0 -1
510 1 20.5326710093543 12.99043563980192 -1.9346843560472466 1 -2 -1
589 1 21.234738374282266 10.400720905471687 0.7525325366901612 1 -1 0
13 1 19.820939882022017 12.572974585783228 2.7281485557631253 1 -1 2
1552 1 25.186315727007063 11.782898093755243 -1.4382728103778297 0 -1 1
1648 1 20.769864274639623 12.727565302448912 5.025594641700794 -2 -1 -1
1466 1 23.609834679837128 8.934184328864452 -0.5718752499742048 -1 1 1
1619 1 23.483364773735616 7.978940535853008 -3.502855967083959 -4 2 0
1126 1 27.83827940723317 10.960271734484751 -3.188683657367563 -1 0 0
471 1 25.370111657973414 9.897970627139243 0.36655751564412675 1 -1 1
886 1 29.336401141413784 11.088362994665356 -1.3161565777158248 0 0 1
758 1 -4.015535542196304 14.896690518379014 -0.3590562663978192 -1 3 1
1508 1 28.856405514494814 8.274416832513207 -2.549010661047755 0 4 1
2454 1 -3.2627807643620788 14.876670437503584 1.774873282782723 2 2 1
1388 1 27.342755191708154 9.474989173999909 -0.7311549163354765 0 -2 -1
2 1 -0.057679628316420484 15.060248271955558 -1.800274754587802 -1 3 -1
549 1 -2.5486487551396984 16.140374438156535 29.76127149503192 -1 1 -2
33 1 -3.8280688332788273 18.963157166371374 -0.4400133372342405 4 -1 1
1279 1 -1.6655978836977803 17.6939597540254 30.913069622957526 1 0 -1
2374 1 5.570877870873396 10.828985899514242 29.96681807185447 -3 -1 0
350 1 0.7589713173438062 12.760312997956127 -0.8186425504001695 -1 1 -1
2282 1 2.668398434132431 15.51484833421911 30.725139624215444 -2 2 1
68 1 2.49961711183364 16.14482520677059 -1.0776533879557277 0 2 2
642 1 -0.3973953508495782 16.982367395866007 29.176778912748276 0 -1 -2
2344 1 3.5654488685775343 14.529070486026114 0.01579041972374906 0 2 0
261 1 2.0040790980325145 17.153990938656555 29.313174398189155 1 0 -1
1676 1 3.863776231592446 17.27962295236832 -2.622691744583282 -2 1 1
105 1 7.976353890916917 16.52931250326291 -3.7775063207560735 -3 1 3
1361 1 2.2782320748407923 18.781069281060788 -3.6457171219206637 1 1 0
190 1 10.626392530113373 19.289284830300534 2.2323834516065197 -1 1 -2
2262 1 9.732059845189452 18.28730096375319 30.669420922702095 2 0 -1
568 1 4.099221268689208 15.994766456374592 1.760413360612711 2 1 2
897 1 8.356748136918375 13.63846982773524 1.2643392204093615 1 -2 2
75 1 8.550112753459684 18.235899778260293 1.097929046059087 1 0 2
187 1 11.132317718481868 12.291272429613148 -1.5793159217913133 -2 -1 1
1048 1 10.28712541102038 14.467593597058443 0.38509640300027215 0 0 -2
1445 1 12.684158001587729 14.888219870350856 -1.6523643813944742 0 -3 0
1995 1 19.65261581179675 17.77080897681439 -0.5574342029689117 2 1 1
1919 1 11.94657212818069 16.169157936757895 0.09104677001287165 0 0 0
1514 1 15.697157868591901 17.13701955854514 -3.5218528504355664 -2 -1 0
1689 1 15.893785477815598 12.21622359912887 30.243655462975433 -1 0 0
674 1 22.031301765884532 17.38364046811106 -2.0914846416408137 -3 -3 0
2020 1 18.337231367902923 14.587022202950823 -0.6087139760641649 0 0 1
1245 1 20.437849442923387 20.38761333043501 -0.18053158183220308 1 0 2
1584 1 21.522328081453185 14.380790452854306 -3.60394638568259 2 -3 -2
860 1 29.925231799610795 13.525267258642902 -3.373830278359504 1 -4 -1
1357 1 20.904855869883797 15.71409068298114 -0.8777470512895182 -1 -2 0
536 1 20.482125633183035 14.878637397599864 2.2484927323519015 1 -2 1
1694 1 25.22998000564005 17.227604363048492 30.431856493662004 3 1 -1
1064 1 21.9246048241477 18.126447486592316 0.38946880858209276 -2 -1 2
1926 1 24.13123121688458 15.913071399086952 -3.2061834408661305 -3 -3 3
1477 1 25.050916805549225 21.100989047841967 -0.31057943246323916 -1 1 -2
214 1 22.277159789636727 12.306253051341084 2.3658166264311244 -2 -1 -1
337 1 -1.8994884303713033 16.042792355673786 -1.550631640679403 1 -1 2
1436 1 -0.7947468464934762 14.099266286344207 0.03645361644986078 -1 1 0
1570 1 28.0631848367707 14.854184543466399 0.8013066599682794 3 3 -1
699 1 28.937662183320906 20.016880686843365 -1.5859941416499002 2 -1 3
1562 1 -4.079618716722461 16.809320933247033 -2.0692651675824516 3 2 -1
540 1 -4.091618654851277 17.965893196752226 -4.251233673294263 1 -3 -1
492 1 2.9070769689456126 20.153957196642235 29.48313579030812 1 -1 1
522 1 -1.2323421026405939 18.276993043663555 -1.7842359035512905 -2 -2 2
2483 1 -0.16755900568189475 19.390833994432615 -4.312368581796086 2 1 1
1903 1 -2.670600032499534 19.42239991356295 -3.1931024116507016 -1 -1 -1
763 1 -2.0277346698302234 20.85155214773126 -0.8599149903965686 -3 -1 2
93 1 1.0170624203416985 19.14242493845728 29.09172479803047 -2 -1 1
2609 1 3.982719488317173 20.010390541618282 -2.520304044243725 -1 0 -2
1035 1 8.589238614831034 22.13908599852376 -3.2659648976181774 -1 0 0
1230 1 -0.12847963482858127 21.2391824183179 2.187479777491035 1 2 1
2048 1 0.09654392750531482 21.57980469531537 -0.30220348532260743 -2 1 1
692 1 1.6055114439583207 19.19607700346747 -0.4578413699786221 0 2 -1
2546 1 12.25990781034546 17.066931933265593 30.339829853917237 0 -3 -4
64 1 8.013435008457396 20.85860511996025 -1.554188507591903 -2 1 0
585 1 6.4209128899634536 18.745561106591932 -2.4523637133674674 1 3 1
2149 1 7.705799226983817 23.902340104989534 1.0440757578638662 -1 -2 2
946 1 4.177814418986916 18.8193757946121 -0.47330788450029004 0 -1 1
265 1 5.8181164003779315 23.161424596658925 -1.0809721611523258 1 1 1
834 1 13.540087781811248 17.16429384086991 -1.3145872318585425 -1 -3 0
1632 1 9.933279925135382 20.3076260774497 -0.28396976499147275 2 -1 -1
1780 1 10.994961327679505 22.090363000589388 0.22764479499535017 2 -3 4
2094 1 8.956813638852154 18.33297309277813 -1.690982568800139 1 -1 1
774 1 9.34800095932871 15.52479731672987 29.062110292515236 1 -4 0
580 1 11.104249613696986 18.46538245500297 -1.9257588214585293 0 -1 0
938 1 16.468885505556067 18.540285480580994 0.6223056390409845 1 2 1
1557 1 14.556570691428007 19.53624474386605 -3.9748449259379934 1 2 2
218 1 17.993671009179124 20.256430483908712 28.959503123406577 1 1 -1
1627 1 14.769362576117807 19.14853899710042 -1.1635846850525042 3 -1 1
408 1 19.569358763362974 16.752542477363317 3.0888110819723273 -1 0 0
1246 1 17.685789329946346 17.942220169126298 -2.3556663810103444 -1 -5 1
94 1 19.59661466594894 22.440445056701442 29.466464024829385 -1 1 -2
1341 1 20.478690304433965 19.01650946770722 -2.879868278419953 -2 -2 2
1914 1 25.669497628577293 20.696917750247785 -2.6888766796365804 -2 1 -1
2405 1 23.858599934238878 17.644848431407258 1.4123929274008793 0 -1 1
2101 1 22.74908260726709 21.21444614957059 -1.215688849220498 -2 0 0
657 1 26.69329189950821 18.935932032386706 -3.6896924896164593 1 1 1
2000 1 28.324128608419453 20.884756521824936 30.457313207688195 0 0 -1
2032 1 27.604866561865673 24.36003757056161 -1.9396008432536793 1 2 2
770 1 29.37542320275033 18.96871100602372 29.842122488625087 -1 1 2
1787 1 30.438660382308225 25.590278438464544 0.484180186610498 -1 -2 -2
518 1 29.25460613407068 22.587933344681087 -1.7658585544185712 -2 -1 1
2663 1 -4.164694020091885 21.185472806790756 -2.828578163793514 2 3 -2
137 1 -2.557682698813556 26.508838273257307 3.491785843161024 2 -2 2
2312 1 2.9412166141669402 21.848089386422483 -3.010812125307699 2 1 5
1698 1 -0.44354639314262556 25.928427457313976 30.03997883474168 1 1 -1
409 1 -2.058439048039591 25.481402667617846 -2.897019968984617 0 -5 1
622 1 -3.7565173672568504 27.653657580758374 -1.9851425673154122 3 1 1
1137 1 -0.22827924910347264 23.889022658701407 -3.1144813343091142 2 0 -1
2587 1 1.9339459129990075 24.52277807193074 -2.2010304825535276 5 -1 -1
447 1 -0.2390255454739023 25.502401062091014 0.6282043229864449 0 -1 2
679 1 -0.8573626085528687 27.16353266581824 -1.2346047191034657 -1 0 0
1792 1 4.0635920340654454 26.506418970258583 -3.1500122393085483 0 0 0
1369 1 1.4173429745220982 27.082238429977036 -1.1544865740334367 0 1 -1
1829 1 5.677516625389252 22.627119039496467 -3.3202018879498727 1 0 0
1728 1 4.796754606849909 23.572648230050536 0.7380128453543975 0 0 -1
990 1 10.232146576118744 26.216809753104204 -1.1684711396968264 3 -1 0
2387 1 8.62058314769193 23.59759492951274 -1.0445602309015398 0 -1 0
290 1 5.0819801777978295 21.15913264451804 -0.38079758142970377 2 -2 2
2611 1 7.0482288048992245 23.92846622416221 -4.227673712783673 1 -1 3
1375 1 9.713897276016324 20.388969153860366 -3.7183493519312667 -1 -4 -1
2399 1 12.102404591312126 24.901366089684448 -2.5094183574879567 3 2 1
348 1 10.127851355338004 23.299992500034882 30.238055571703335 -1 -2 0
1797 1 12.314714347697326 21.92001459411633 -2.927285843521914 -1 -3 0
1047 1 13.157497787279755 24.52093961750518 0.407456889249036 0 1 0
58 1 13.44458014381652 22.514187736022603 30.56455596480817 -1 -1 -1
666 1 14.327976085363858 25.88156286828163 -2.670217643574115 1 2 3
1017 1 16.4288340900279 25.04195985704968 30.54563957512967 1 0 -1
1885 1 14.10095831753597 24.854876527919153 30.4031201818947 1 0 -1
1149 1 13.71363890569393 21.698929683878745 -0.8039376642618832 -1 0 0
809 1 17.998901646928175 26.837300442275865 -4.262686792566062 0 -1 0
1018 1 18.82449947772211 20.824041897739544 -3.375237199575257 -1 0 3
2443 1 17.554746951445818 23.66902287053617 -2.4848482842591824 -1 -1 0
2402 1 20.99752217524513 21.168823613556487 -3.428342497832846 1 0 0
161 1 19.238970949785447 24.768819804772985 -1.3980493226868576 -2 0 -1
1298 1 20.211698226181745 24.63048863309995 28.584065208381283 3 2 1
803 1 20.252853800555187 22.97298865124964 -0.006493624895721695 -2 0 -3
2137 1 20.612045643571722 24.429715601234573 -3.319209187951351 0 -1 2
812 1 24.997250749333965 26.137653067330024 -2.3865819068584027 0 -3 0
318 1 25.185646784114645 23.1901851932069 30.493645683481873 -1 -1 -1
1910 1 23.532247675072114 21.98165614802868 -3.46122575180511 -1 0 2
205 1 27.69593152876075 25.364302313845577 -4.189444382737023 -2 -2 3
2459 1 25.38728140086106 25.457840540728053 30.552009133047207 2 4 0
1660 1 26.12674116877586 26.719044188796833 -0.3245735308103401 0 -1 0
639 1 30.22702228473543 29.174990426778738 0.08156688977348736 -2 -3 0
1801 1 27.008419239718695 24.612146922326684 0.23944215242667166 0 0 -1
754 1 25.602256257314743 23.165232634933982 1.1926777545426122 2 1 0
1 1 -0.7064797796880415 -3.624939371956117 -1.8794938259895346 -2 2 1
2388 1 1.1893168202070603 29.968428367340604 29.864077244513396 -1 2 3
2040 1 -3.690712091357751 28.495462128456328 -4.071695326352058 -2 -1 -1
866 1 0.08179703434247099 27.866440649685355 -4.027563997193434 -2 1 0
1377 1 -2.249116559804593 27.10111244844425 30.024385412796605 1 0 -1
1399 1 -0.08143996972728118 27.550584549030418 2.4091043259634155 -1 -2 -2
881 1 0.5427767198078355 29.926855464150332 0.011910258348213354 0 -2 3
341 1 0.9242726224889886 29.49069437028543 -2.4398806318687023 3 -2 0
9 1 3.895049605865859 -3.588264620728893 30.144919130013363 -1 2 0
2249 1 4.054682268068262 28.568725295171237 0.2722115229480355 1 -2 0
2201 1 5.821769098116375 30.230419230327183 -2.4823413077548384 0 0 1
1609 1 7.002657591890632 26.17166958543123 -4.168317637028224 3 -1 0
2175 1 8.663409489192949 27.710641849466466 -2.2980530935012937 -1 0 1
1432 1 6.754842828453324 25.616548918884327 -1.6482222326831195 -1 -1 0
2006 1 4.264881422554819 28.88535645428465 -3.730031585363297 1 3 -1
2322 1 4.72624247874538 26.477160398554872 -0.27965785217991623 -3 -1 -3
687 1 7.255142062666806 -3.7183672517758897 0.6789684826183136 1 1 0
1976 1 12.44474070966477 26.37114083723787 -0.6007396979630109 2 -3 3
1176 1 11.041769226846043 23.869849632915336 2.275703648081781 2 -4 0
2243 1 10.246147030319946 30.75443546600385 29.78541182114914 0 -2 1
1764 1 13.631094673224062 28.787276835525144 -2.0854910485314044 -1 -1 1
2658 1 14.526373806475863 23.385970976692715 -2.025298917246651 0 -1 -2
1455 1 8.247917615320121 29.54200780941093 0.3521855369030362 -1 2 2
18 1 12.354479779807939 29.4716736060897 29.635184621195883 -1 -1 0
1384 1 20.509379080333808 27.64214561281121 -1.4599327829461157 -1 -2 2
1192 1 11.39985811536631 25.52439100802939 30.475117141766276 3 -1 0
1759 1 13.371433127811287 30.390683807520627 1.6386071877110124 -1 0 2
430 1 20.49893821627423 30.458372364823088 -2.451945218650451 -3 -2 -1
445 1 22.639482610201846 24.609667741439072 -4.227661058491446 -1 0 1
199 1 17.954080145898732 29.513111319093948 -0.5365736901945835 2 -1 -1
2180 1 20.12757543699483 28.27757023628907 -4.303554265912716 3 1 -1
2615 1 22.23791763829501 26.034467311233882 -0.8969929383128274 -1 -1 0
324 1 18.54011264627374 30.59732808820061 -3.8367796401994374 2 0 -1
2073 1 22.999750970099605 27.991760530854346 -3.3990714840132106 1 0 0
356 1 26.283937946411182 -4.184595094577756 -2.7582306430327623 -1 3 -1
2635 1 26.03614048822105 28.765321421095816 -2.592632510491911 -1 2 -1
791 1 22.331209823844706 30.069040836281612 -1.165065293563115 -1 -1 0
2568 1 24.880096487547473 -2.0117937112605744 -0.7551773091078768 0 0 -1
1068 1 27.17195377118779 29.30119097802473 30.683786338060585 0 -1 -3
1888 1 27.895337040671503 29.178569978859404 -0.3264918433934296 -2 3 1
398 1 27.778899383448586 27.290958295092192 -3.2161206877143638 -2 -2 1
22 1 29.929113169615068 28.421715384612536 29.51491944050916 -2 1 0
2494 1 29.04351974866331 27.304206455069437 -1.159934171479632 -1 -2 3
1378 1 26.900921500587767 -2.155127472414774 -1.4708284012973851 2 1 0
1777 1 28.96523818081774 23.15130987963858 0.9707133271343587 -2 0 -3
814 1 25.602344821768344 30.108450251009568 -0.7904316739984023 -3 -3 0
2651 1 1.2490032837268625 0.45680416016028413 -0.5598718084835874 0 0 0
1512 1 -2.900020413920462 -1.760130002587998 6.0302695941372235 2 -2 1
2041 1 -0.46822540875689045 1.548867868667692 3.198294407731831 0 2 0
1740 1 1.397249554896172 1.3170035922570493 1.957236882957444 2 1 0
2478 1 -3.0003664708295092 2.3278822527339136 4.512627908027456 0 0 0
514 1 -4.072630517177079 27.39422646781179 1.5527395497027845 -1 0 1
1887 1 1.7457949488795554 30.639741219819282 1.507978232267571 3 0 2
1755 1 5.228867682984729 -2.2909518595969054 1.7020222267218124 0 0 -2
2412 1 2.970496967218108 -0.575313470653624 2.949060612601704 2 1 0
222 1 4.994363804178697 -1.7693147992288298 4.882040565991701 1 1 -2
245 1 3.069830931104409 -2.6760509228023515 3.5620076559072658 -2 0 0
168 1 4.048924411622069 29.957479188159343 4.467518630701875 0 0 0
148 1 9.013508735997213 0.7893587345916764 0.18133313215410762 1 1 2
953 1 6.517862180975243 0.43923148732966855 4.688155453378766 1 -2 3
1302 1 9.117364026378985 -3.2126412076206834 3.3101602712084555 1 1 -1
894 1 9.490721812659846 0.5228672087177939 3.9462216920926174 1 0 -1
689 1 10.216448615810508 -4.010471317891809 0.5463235598658169 0 2 0
1320 1 9.813654463607344 -2.428574760787975 -3.120324639054546 1 -2 -1
951 1 11.962733350993599 -2.613893667751819 5.9405197605427915 0 2 2
152 1 11.086522065217308 29.068539249188373 -0.3085672215357782 -2 -2 0
1576 1 11.084924726293544 -1.2306636845393588 3.7266667769923156 2 1 1
69 1 11.691366544168085 -3.4510330074776383 2.990921934161105 0 2 -1
253 1 12.949429585954153 -2.8674730601834852 0.43394165941447316 2 0 1
1433 1 16.235236938729688 -1.3910495004647072 4.907700571401149 -1 3 2
745 1 15.30514675661129 -1.1787051357268354 1.6632997223825186 1 -3 1
173 1 19.03353749024243 -0.9448473369985928 1.6409061275024515 0 0 -1
1724 1 17.295202421058047 0.381536767769485 3.4124611252331043 -2 0 0
964 1 18.63153050102615 29.291801495071613 3.681718890812964 -1 -2 0
153 1 16.538248769524735 0.5219821181420281 0.5225064740422667 -1 3 -1
2295 1 19.642285842434806 -3.9654039859627277 7.016732722081787 -3 0 -1
2210 1 27.61667630275419 -2.7812064266351983 3.8662840731990524 -2 -1 2
2247 1 27.681806006050955 -0.022104430468519176 2.9093931238210873 -2 0 1
2054 1 24.0294643152139 -1.759516962172183 1.8530969839472027 1 3 0
1788 1 24.9736733655733 -4.187553046145771 3.7747551502991286 -1 0 1
2072 1 -1.7740670520879327 -1.8310057441104641 0.9425151261064793 -2 0 0
257 1 -1.0274997162377106 30.51923827609131 1.466381870696008 1 0 1
366 1 29.395726080444515 -0.6040497038580517 4.486714861881097 0 1 3
672 1 -3.681326074646594 -0.598635129031797 4.159910706187274 0 2 1
1578 1 29.827669958086215 -0.6288417239020756 1.1168016182155789 0 -1 -3
1237 1 1.9702228588936164 3.5692429800594825 3.1371681479691187 0 -1 1
1276 1 -0.7643906474347428 -0.39522255332071055 5.2755744173360934 4 -3 2
1079 1 -1.8155787405339643 2.9344399382845605 1.610901640514589 1 1 -1
2496 1 -3.0696950855612775 0.42608048591158987 2.2042229250799004 2 3 1
289 1 2.139974316732906 1.381537119457911 -2.3815204155695975 3 4 3
1504 1 3.7225610099055118 -0.22830774880740723 -0.06686803629978666 -1 -2 2
2167 1 3.4829020268519146 1.8024890289987292 -4.035307788051208 -3 0 -1
1748 1 3.835463763568704 2.703715072315976 6.202259511174502 0 -1 3
1415 1 5.631979461268427 1.0973832381154605 2.696423405672445 3 1 -1
2394 1 3.805286845688043 1.9918860921056867 0.7020086548245166 0 2 2
184 1 -0.5317826873660865 -0.9063522955301848 8.152078097267056 -1 -1 1
977 1 7.082377084811222 3.8761825583095373 -1.1398422805961963 0 0 2
1608 1 6.814412124053723 3.163369264272233 0.9571773656075973 -2 0 0
35 1 8.150423694049065 -2.80650871173028 5.474704861994081 -1 2 -3
271 1 8.580501720090961 3.1136118638750716 4.046076419943757 0 3 1
1875 1 11.199070777749832 0.26401734392525356 -0.8127734864773952 1 2 3
1646 1 13.51131596608462 4.037903919112608 1.067027547806907 1 -1 1
1013 1 11.656171046209696 3.618744066053212 3.456790133274902 0 0 2
1122 1 9.354903729093568 5.27082997481298 2.513816244192837 -1 -1 0
1189 1 11.610938413708576 4.586737128679083 7.137772330408936 0 1 0
578 1 13.93549511268057 1.5926445965013283 2.081667959961833 -2 3 0
1850 1 11.746753815666075 1.1963205941041055 4.261131286285481 -1 0 0
1170 1 13.216804323708882 0.35910023302623095 0.2784694736085731 0 1 1
590 1 17.984346602653297 2.877844743823002 1.5033219515131577 -2 2 3
1480 1 12.35390819971245 -0.011136188604392139 2.255677829167298 0 3 3
1393 1 19.90317934213759 1.3731886120690415 0.5089051756713259 -1 1 4
1249 1 14.537131131739251 -4.085797393549999 -0.9802807443539336 2 -2 1
343 1 21.889011013414102 1.3421099792469695 4.387962646221258 2 -2 -1
2124 1 19.443475880418777 0.9799353335426915 3.250830681957881 -1 1 0
1012 1 18.02396091826467 8.003304339231875 -0.9583105042116546 1 2 0
987 1 22.565288004902996 2.427336902941742 1.5214595142741345 0 1 0
1636 1 26.138844784146297 0.5792234334944037 0.4226018990266853 0 0 0