LAMMPS Description

1335  atoms
0  bonds
0  angles
0  dihedrals
0  impropers

1  atom types
0  bond types
0  angle types
0  dihedral types
0  improper types

0.0 26.5 xlo xhi
0.0 26.5 ylo yhi
0.0 26.6 zlo zhi

Masses

1 15.9994  # Fe

Atoms

1 1 1.595 5.978 19.611
2 1 24.502 1.334 21.256
3 1 7.990 9.800 9.530
4 1 23.364 10.897 17.111
5 1 17.750 22.371 12.315
6 1 19.665 1.741 17.499
7 1 2.136 17.763 21.329
8 1 22.599 19.379 22.477
9 1 16.058 24.501 20.352
10 1 10.166 10.240 14.064
11 1 7.941 19.461 3.501
12 1 20.689 23.336 13.244
13 1 21.421 -0.010 17.678
14 1 19.026 20.081 14.165
15 1 21.362 14.040 21.467
16 1 12.150 17.735 19.743
17 1 12.805 15.759 20.433
18 1 4.993 6.632 3.659
19 1 2.064 18.849 9.886
20 1 10.377 6.539 19.206
21 1 -0.005 22.859 5.213
22 1 1.938 19.445 12.518
23 1 8.340 24.511 2.230
24 1 16.280 14.869 12.381
25 1 1.738 8.401 13.088
26 1 21.515 0.016 15.481
27 1 19.699 21.740 0.546
28 1 20.643 15.751 13.943
29 1 1.299 24.216 7.100
30 1 21.125 -0.001 23.808
31 1 14.516 19.041 1.674
32 1 12.169 14.979 24.501
33 1 4.638 24.552 23.903
34 1 5.255 5.262 0.392
35 1 0.632 12.210 22.012
36 1 5.598 11.560 11.885
37 1 2.965 14.567 4.084
38 1 17.453 3.331 11.530
39 1 20.352 12.841 4.186
40 1 22.587 16.081 20.108
41 1 1.936 9.800 9.254
42 1 6.130 18.314 11.208
43 1 8.692 5.171 14.083
44 1 21.550 12.335 13.545
45 1 23.395 20.293 12.698
46 1 16.600 24.505 4.829
47 1 18.520 8.011 19.022
48 1 4.116 15.538 0.432
49 1 22.504 12.860 16.614
50 1 11.008 20.351 7.155
51 1 10.127 6.377 21.392
52 1 0.318 5.763 12.730
53 1 20.791 8.879 21.104
54 1 4.011 9.314 23.370
55 1 20.601 15.869 16.139
56 1 8.454 7.720 2.770
57 1 23.714 17.426 3.388
58 1 0.074 20.897 4.222
59 1 23.520 15.551 13.728
60 1 9.288 13.556 13.070
61 1 17.747 8.773 -0.017
62 1 12.434 10.182 20.182
63 1 13.058 10.947 7.217
64 1 7.624 12.321 23.202
65 1 7.480 20.636 0.354
66 1 24.348 17.212 7.920
67 1 6.355 1.268 12.083
68 1 5.949 7.231 7.838
69 1 20.481 13.720 16.574
70 1 17.543 24.259 0.969
71 1 7.904 17.829 15.114
72 1 21.392 22.048 4.759
73 1 18.407 10.349 19.338
74 1 23.273 11.941 6.408
75 1 5.923 1.839 18.681
76 1 -0.002 22.136 14.216
77 1 10.338 23.869 14.651
78 1 17.419 7.067 4.948
79 1 7.735 3.262 8.380
80 1 22.244 14.466 12.307
81 1 23.495 21.375 9.441
82 1 8.403 5.212 10.095
83 1 20.156 2.745 11.329
84 1 21.523 4.089 3.553
85 1 21.593 2.014 18.523
86 1 -0.012 14.474 15.867
87 1 0.907 24.131 14.035
88 1 11.772 1.808 9.891
89 1 15.761 8.341 4.261
90 1 24.520 6.422 17.138
91 1 17.725 10.938 2.649
92 1 9.562 5.109 4.819
93 1 6.169 24.488 20.312
94 1 10.507 5.766 9.772
95 1 12.221 4.858 24.444
96 1 17.558 24.502 16.863
97 1 11.797 11.086 9.100
98 1 1.304 15.308 23.408
99 1 24.502 24.502 20.605
100 1 6.752 24.493 24.507
101 1 6.867 9.934 18.944
102 1 7.684 11.074 12.503
103 1 1.857 -0.000 14.215
104 1 11.361 3.509 11.272
105 1 20.338 4.010 24.505
106 1 23.435 4.338 5.635
107 1 1.155 0.763 4.912
108 1 0.459 20.534 9.530
109 1 15.759 22.067 20.025
110 1 5.300 24.509 14.771
111 1 23.067 24.502 22.273
112 1 20.596 5.690 2.216
113 1 20.766 20.384 7.940
114 1 10.810 0.387 11.266
115 1 24.504 16.166 11.801
116 1 17.058 0.652 8.567
117 1 6.735 20.074 6.643
118 1 6.501 19.065 1.541
119 1 14.806 1.022 19.258
120 1 22.048 7.124 17.593
121 1 5.810 9.536 0.623
122 1 13.211 3.339 22.951
123 1 7.003 17.837 17.122
124 1 20.032 8.637 12.659
125 1 21.528 20.769 24.291
126 1 9.391 0.722 9.619
127 1 8.496 15.937 0.036
128 1 15.834 7.661 11.027
129 1 14.663 14.582 20.400
130 1 7.356 16.226 5.509
131 1 4.441 6.502 11.789
132 1 15.564 15.870 23.824
133 1 12.134 8.648 1.599
134 1 13.208 17.226 0.637
135 1 10.042 1.096 2.002
136 1 10.613 21.486 10.954
137 1 3.405 12.877 17.619
138 1 7.678 5.432 8.030
139 1 15.458 8.319 14.040
140 1 18.626 19.177 3.031
141 1 9.496 3.204 9.710
142 1 10.324 23.558 21.360
143 1 20.737 14.927 6.305
144 1 1.684 2.069 6.615
145 1 4.335 13.757 1.704
146 1 11.834 11.381 21.993
147 1 13.191 5.665 0.940
148 1 1.982 18.260 2.463
149 1 19.763 16.047 11.159
150 1 10.521 14.219 15.744
151 1 19.218 19.412 6.420
152 1 6.315 9.920 16.283
153 1 21.664 9.541 16.795
154 1 3.602 7.060 16.876
155 1 22.335 13.707 3.740
156 1 13.734 22.298 17.505
157 1 17.474 19.737 0.551
158 1 3.011 19.043 24.503
159 1 14.377 2.056 13.298
160 1 9.924 4.879 12.285
161 1 13.191 -0.015 20.314
162 1 14.776 15.859 14.165
163 1 18.893 6.183 3.518
164 1 2.178 5.202 6.463
165 1 2.864 1.114 12.197
166 1 10.912 13.655 21.495
167 1 0.141 4.005 6.498
168 1 15.177 16.357 1.409
169 1 11.929 16.971 22.417
170 1 23.249 17.871 12.402
171 1 23.842 11.064 24.500
172 1 21.290 22.245 9.100
173 1 21.077 2.779 6.044
174 1 15.220 7.160 6.349
175 1 16.829 10.257 20.867
176 1 5.990 20.174 22.698
177 1 18.062 21.468 2.325
178 1 11.997 4.947 22.069
179 1 17.187 3.196 6.623
180 1 2.221 10.139 24.501
181 1 13.458 23.823 8.030
182 1 8.594 1.312 21.508
183 1 23.835 12.012 2.626
184 1 7.208 16.018 8.469
185 1 0.278 16.835 6.291
186 1 24.500 24.311 6.542
187 1 9.588 11.233 18.075
188 1 14.887 18.797 9.027
189 1 2.481 7.083 9.406
190 1 24.500 9.452 0.295
191 1 3.710 10.064 1.005
192 1 10.096 8.064 17.259
193 1 1.444 22.331 16.290
194 1 10.619 21.121 20.401
195 1 2.247 14.905 7.548
196 1 6.493 10.694 4.738
197 1 17.975 9.082 3.809
198 1 1.657 14.086 20.067
199 1 0.912 16.059 20.676
200 1 24.306 14.715 24.067
201 1 24.497 10.850 13.612
202 1 17.578 22.285 -0.000
203 1 3.968 23.337 12.855
204 1 8.783 17.111 18.421
205 1 0.643 14.864 11.591
206 1 6.197 17.698 13.317
207 1 15.874 9.175 22.743
208 1 15.670 24.503 15.089
209 1 11.544 14.410 3.058
210 1 0.665 3.506 18.632
211 1 5.680 3.873 2.043
212 1 16.863 11.864 16.162
213 1 1.806 1.262 0.654
214 1 16.571 6.600 19.474
215 1 21.753 5.655 6.162
216 1 3.517 21.916 16.894
217 1 24.227 14.396 9.023
218 1 10.550 3.933 2.315
219 1 14.604 1.221 17.076
220 1 15.493 20.552 2.940
221 1 14.584 5.849 8.916
222 1 13.145 17.894 4.873
223 1 4.080 18.857 2.179
224 1 11.031 9.649 18.573
225 1 3.132 7.244 23.502
226 1 18.715 13.970 3.246
227 1 8.589 5.307 24.507
228 1 14.645 6.434 20.524
229 1 12.652 7.801 23.982
230 1 8.334 12.974 14.965
231 1 23.924 15.239 3.496
232 1 4.233 20.402 4.786
233 1 20.479 1.837 20.746
234 1 19.102 3.776 18.114
235 1 4.698 16.812 7.083
236 1 19.749 9.265 14.841
237 1 10.819 8.264 20.497
238 1 24.405 22.496 23.761
239 1 13.550 7.214 2.460
240 1 15.740 4.319 19.894
241 1 11.708 11.735 18.391
242 1 5.309 15.640 4.473
243 1 21.248 15.735 22.863
244 1 12.245 9.255 22.381
245 1 0.971 14.635 5.632
246 1 2.445 15.608 9.623
247 1 24.299 18.246 0.364
248 1 13.804 23.341 15.021
249 1 12.790 8.332 18.262
250 1 18.384 14.658 15.469
251 1 12.682 19.307 11.781
252 1 3.670 2.678 13.516
253 1 19.689 5.296 22.844
254 1 16.739 9.120 1.907
255 1 9.392 15.218 17.482
256 1 4.351 20.522 20.760
257 1 12.697 9.112 8.738
258 1 5.158 3.243 17.169
259 1 2.461 17.541 16.318
260 1 21.972 7.927 6.842
261 1 2.908 16.286 24.550
262 1 11.205 15.529 7.034
263 1 5.350 18.441 21.526
264 1 17.015 3.306 3.521
265 1 10.097 7.211 4.451
266 1 7.199 1.033 16.372
267 1 5.234 16.192 19.673
268 1 4.775 23.339 0.298
269 1 22.634 0.298 4.315
270 1 -0.001 7.419 20.077
271 1 14.504 24.502 16.954
272 1 19.649 3.565 2.042
273 1 4.356 1.629 20.304
274 1 20.711 2.252 9.258
275 1 4.369 18.165 9.017
276 1 4.921 5.181 16.156
277 1 22.739 13.875 7.309
278 1 6.737 13.618 11.405
279 1 15.393 6.600 1.430
280 1 -0.002 16.884 14.508
281 1 6.458 9.434 6.541
282 1 17.257 1.023 6.286
283 1 1.166 13.768 17.582
284 1 7.467 11.579 17.459
285 1 19.738 0.113 14.187
286 1 5.109 21.053 -0.000
287 1 22.732 5.313 16.497
288 1 3.835 1.668 6.832
289 1 22.711 3.400 21.504
290 1 1.698 15.742 15.311
291 1 15.558 5.320 16.672
292 1 2.051 15.499 13.155
293 1 1.819 15.156 1.393
294 1 7.595 0.789 8.350
295 1 13.119 6.827 7.550
296 1 5.798 11.024 20.526
297 1 3.456 19.180 22.355
298 1 10.127 2.874 17.369
299 1 9.305 16.029 4.508
300 1 2.058 17.520 14.067
301 1 22.638 11.060 14.971
302 1 11.867 5.905 12.177
303 1 19.866 12.303 10.193
304 1 0.109 10.642 18.184
305 1 21.621 24.478 14.972
306 1 8.470 9.546 17.211
307 1 22.692 16.183 5.956
308 1 11.816 13.064 23.410
309 1 15.635 16.590 5.062
310 1 18.813 2.037 14.715
311 1 23.605 5.386 21.815
312 1 -0.018 19.707 20.838
313 1 15.948 22.611 2.258
314 1 20.138 24.029 8.525
315 1 6.554 9.307 11.692
316 1 5.393 14.546 17.923
317 1 12.040 3.974 8.773
318 1 11.523 10.661 2.288
319 1 1.353 18.960 23.063
320 1 16.912 14.606 5.613
321 1 0.835 9.569 14.820
322 1 2.931 20.688 8.967
323 1 4.429 7.383 1.426
324 1 13.833 5.388 3.638
325 1 2.137 7.793 18.492
326 1 22.519 23.412 11.058
327 1 15.696 2.107 4.816
328 1 6.227 8.426 3.971
329 1 3.231 4.688 12.128
330 1 4.010 22.969 9.074
331 1 19.159 10.610 4.860
332 1 7.266 11.849 10.021
333 1 12.930 0.137 10.736
334 1 18.953 4.895 11.147
335 1 17.683 7.737 23.975
336 1 0.100 24.059 23.254
337 1 7.873 22.655 1.135
338 1 12.778 21.815 7.055
339 1 24.045 17.178 17.745
340 1 13.941 12.784 23.905
341 1 22.334 22.568 23.019
342 1 3.569 10.417 11.760
343 1 7.259 11.192 0.604
344 1 8.974 17.612 2.906
345 1 22.592 15.906 8.141
346 1 8.695 17.679 24.503
347 1 4.607 3.558 19.277
348 1 -0.001 6.170 22.769
349 1 17.120 14.108 -0.003
350 1 16.576 5.961 9.844
351 1 7.809 6.428 18.514
352 1 22.438 13.193 9.457
353 1 21.268 21.481 21.079
354 1 14.173 12.428 17.924
355 1 2.042 13.573 15.192
356 1 16.078 1.694 2.339
357 1 5.954 24.509 17.456
358 1 1.251 0.738 2.716
359 1 14.635 16.973 11.329
360 1 0.001 22.618 21.598
361 1 24.503 21.657 11.375
362 1 15.732 8.348 20.516
363 1 5.936 21.807 8.851
364 1 9.734 22.941 -0.002
365 1 15.723 1.461 0.042
366 1 0.614 1.875 11.912
367 1 6.246 1.475 6.016
368 1 11.157 14.555 13.664
369 1 7.047 8.203 21.780
370 1 -0.028 22.414 18.205
371 1 18.775 3.210 20.528
372 1 9.490 0.373 -0.001
373 1 15.056 11.450 5.245
374 1 14.359 14.452 9.271
375 1 0.018 2.407 21.608
376 1 14.137 20.802 11.082
377 1 5.336 21.705 6.170
378 1 11.495 11.746 0.375
379 1 6.547 4.990 3.727
380 1 23.007 3.494 19.326
381 1 0.436 4.409 20.626
382 1 4.295 12.777 8.060
383 1 -0.001 3.919 -0.000
384 1 15.666 3.146 16.993
385 1 22.441 15.911 10.661
386 1 4.744 2.144 24.391
387 1 15.372 10.128 7.345
388 1 0.217 20.223 2.082
389 1 8.904 10.889 2.084
390 1 23.007 19.302 2.483
391 1 12.931 18.072 14.089
392 1 7.003 7.098 9.945
393 1 20.613 19.218 4.639
394 1 19.928 13.073 12.256
395 1 15.374 2.088 7.191
396 1 24.288 0.604 13.746
397 1 18.677 10.639 0.684
398 1 21.277 5.029 10.812
399 1 18.988 16.389 20.598
400 1 11.107 24.371 24.500
401 1 13.726 20.822 23.833
402 1 22.605 22.283 13.487
403 1 18.677 13.121 5.584
404 1 0.505 21.984 12.083
405 1 2.822 24.229 1.480
406 1 5.014 0.339 4.590
407 1 20.514 6.888 4.828
408 1 9.344 7.971 10.509
409 1 18.930 8.754 1.836
410 1 14.971 21.351 5.731
411 1 7.180 -0.003 4.414
412 1 7.011 17.115 23.205
413 1 18.937 17.367 1.821
414 1 15.189 24.119 0.847
415 1 1.410 20.810 17.876
416 1 17.839 5.991 8.001
417 1 24.502 9.271 4.692
418 1 21.319 14.413 19.095
419 1 2.068 20.532 3.367
420 1 18.518 1.697 12.559
421 1 11.318 16.885 12.728
422 1 10.267 9.964 24.248
423 1 4.157 19.106 11.835
424 1 21.604 17.722 13.854
425 1 12.641 20.589 21.119
426 1 16.850 13.111 2.457
427 1 12.449 6.325 14.283
428 1 0.007 14.842 13.695
429 1 8.299 0.146 6.303
430 1 4.065 11.730 13.453
431 1 3.444 9.603 13.818
432 1 15.725 12.397 8.331
433 1 2.120 24.104 19.414
434 1 15.664 22.496 14.191
435 1 0.919 21.490 19.955
436 1 6.498 6.645 20.266
437 1 14.272 23.752 3.429
438 1 8.171 9.666 3.756
439 1 0.491 8.878 1.053
440 1 4.784 7.021 9.679
441 1 18.567 1.356 19.366
442 1 15.900 3.626 13.061
443 1 17.132 18.974 14.142
444 1 19.842 6.204 7.103
445 1 17.691 17.255 19.047
446 1 16.061 15.801 16.131
447 1 22.494 21.070 16.524
448 1 8.364 18.114 0.310
449 1 2.503 10.122 16.705
450 1 10.360 17.119 10.761
451 1 21.857 23.164 16.745
452 1 5.647 15.602 2.299
453 1 12.326 20.472 9.813
454 1 24.430 10.605 19.010
455 1 20.107 6.748 11.531
456 1 0.013 19.883 24.537
457 1 0.255 9.360 7.688
458 1 12.693 14.893 10.640
459 1 -0.005 24.510 8.845
460 1 22.847 17.026 22.078
461 1 23.405 8.012 16.107
462 1 22.689 18.454 8.657
463 1 21.470 0.603 12.923
464 1 19.751 17.902 12.346
465 1 1.221 17.224 0.509
466 1 6.066 6.626 5.729
467 1 15.611 21.322 22.765
468 1 11.804 1.727 22.448
469 1 2.172 22.968 23.680
470 1 7.000 14.005 13.557
471 1 13.702 15.538 5.058
472 1 0.002 17.745 21.831
473 1 17.879 5.472 24.082
474 1 8.152 23.881 22.925
475 1 8.290 1.551 3.325
476 1 1.630 4.408 4.344
477 1 22.887 9.856 20.633
478 1 14.654 18.788 16.312
479 1 8.149 -0.001 1.772
480 1 2.342 2.371 3.919
481 1 21.197 12.661 6.317
482 1 3.802 14.359 14.129
483 1 12.523 6.589 19.733
484 1 20.693 8.307 18.859
485 1 13.688 18.280 22.184
486 1 9.589 17.890 16.529
487 1 5.976 8.952 9.207
488 1 1.421 24.508 4.923
489 1 10.203 19.549 17.837
490 1 19.756 24.517 16.747
491 1 9.633 22.416 23.622
492 1 7.362 20.330 13.903
493 1 5.229 11.325 22.629
494 1 19.650 8.678 16.958
495 1 5.549 15.646 13.771
496 1 16.386 14.542 8.161
497 1 18.780 19.268 24.510
498 1 1.636 2.947 10.190
499 1 13.380 10.543 23.756
500 1 5.822 2.540 9.586
501 1 9.863 11.031 12.027
502 1 23.531 0.545 17.231
503 1 10.871 0.002 18.424
504 1 23.789 2.269 23.115
505 1 18.280 0.903 2.321
506 1 13.737 21.094 1.516
507 1 23.902 0.170 19.488
508 1 0.531 18.505 15.894
509 1 4.202 3.182 5.279
510 1 14.239 6.826 17.583
511 1 12.805 9.376 3.563
512 1 14.474 16.643 9.160
513 1 2.175 5.810 22.134
514 1 24.504 7.369 22.124
515 1 22.451 8.191 4.025
516 1 0.337 22.677 10.004
517 1 6.686 18.334 5.299
518 1 1.307 6.565 4.805
519 1 11.043 15.304 19.052
520 1 11.394 8.071 12.303
521 1 19.103 15.300 22.736
522 1 -0.026 15.572 17.984
523 1 24.060 5.819 12.108
524 1 19.614 5.272 9.083
525 1 16.149 3.803 1.351
526 1 14.904 24.216 6.200
527 1 18.616 5.940 13.271
528 1 7.981 1.783 19.457
529 1 13.202 17.477 24.173
530 1 21.778 17.654 17.685
531 1 -0.001 19.903 11.585
532 1 19.857 22.660 17.911
533 1 23.763 6.051 24.303
534 1 12.733 13.601 12.462
535 1 10.454 18.919 20.517
536 1 18.780 15.785 5.780
537 1 16.595 13.560 20.129
538 1 10.049 16.148 8.800
539 1 19.392 24.505 14.578
540 1 3.383 5.161 9.985
541 1 4.736 21.180 2.505
542 1 16.260 20.215 16.783
543 1 2.453 22.588 21.076
544 1 24.380 3.207 7.269
545 1 10.732 3.587 13.871
546 1 9.216 0.825 17.229
547 1 12.620 7.471 16.241
548 1 16.889 16.789 14.181
549 1 2.450 -0.010 6.510
550 1 4.359 21.102 13.363
551 1 7.179 22.877 5.913
552 1 3.427 5.978 14.163
553 1 11.317 24.493 0.005
554 1 11.194 22.512 3.745
555 1 1.045 7.144 16.698
556 1 20.570 18.037 15.770
557 1 15.240 13.905 1.120
558 1 24.433 9.798 22.726
559 1 7.493 16.229 12.322
560 1 2.728 6.551 3.125
561 1 11.558 12.467 4.089
562 1 11.226 22.986 1.601
563 1 1.755 20.016 14.865
564 1 23.734 1.040 10.946
565 1 19.322 15.373 7.931
566 1 15.060 15.312 3.341
567 1 0.523 7.672 10.882
568 1 3.360 21.314 22.850
569 1 0.773 4.111 22.779
570 1 7.935 12.421 3.325
571 1 24.290 20.265 4.355
572 1 3.305 14.063 24.501
573 1 8.753 7.293 8.502
574 1 18.474 22.569 8.235
575 1 16.534 13.623 14.880
576 1 15.272 8.598 18.379
577 1 16.421 2.904 9.634
578 1 15.261 11.532 13.331
579 1 24.211 17.168 24.503
580 1 7.271 13.767 8.944
581 1 12.120 1.954 12.699
582 1 20.513 17.484 21.750
583 1 10.862 11.009 7.110
584 1 6.491 6.988 2.102
585 1 8.107 19.231 11.511
586 1 23.620 13.356 14.186
587 1 20.336 6.149 18.571
588 1 9.957 2.742 19.557
589 1 8.369 18.275 20.258
590 1 20.539 0.642 10.748
591 1 17.918 12.058 11.833
592 1 24.497 18.725 14.037
593 1 4.968 22.962 4.391
594 1 3.826 4.775 3.810
595 1 24.217 13.107 4.760
596 1 18.533 7.672 9.240
597 1 4.201 17.884 4.148
598 1 21.681 24.500 3.767
599 1 16.516 13.735 17.264
600 1 8.902 6.407 6.483
601 1 15.296 11.758 1.687
602 1 14.841 17.530 3.239
603 1 17.517 7.893 13.394
604 1 22.617 3.466 1.629
605 1 13.026 16.157 3.027
606 1 11.169 5.067 -0.000
607 1 8.462 22.564 8.304
608 1 20.564 10.930 2.956
609 1 12.953 24.166 13.122
610 1 4.703 11.617 5.622
611 1 21.515 11.533 21.763
612 1 4.520 13.457 12.168
613 1 4.663 22.429 15.090
614 1 6.426 6.306 12.715
615 1 7.257 15.719 17.660
616 1 18.663 14.287 19.944
617 1 8.597 8.974 7.028
618 1 10.319 16.165 24.501
619 1 17.465 21.090 21.007
620 1 12.085 10.683 5.262
621 1 3.790 2.937 10.676
622 1 6.410 13.784 24.500
623 1 18.307 24.500 11.708
624 1 16.107 18.688 10.919
625 1 5.357 10.245 2.654
626 1 4.230 12.054 0.225
627 1 15.671 7.920 16.323
628 1 8.395 22.051 17.556
629 1 8.107 3.535 23.295
630 1 1.742 19.876 7.303
631 1 1.106 11.812 9.571
632 1 17.377 24.488 13.701
633 1 23.592 19.660 24.500
634 1 16.760 20.226 6.933
635 1 13.914 15.247 -0.010
636 1 8.808 17.838 13.063
637 1 20.753 16.423 9.231
638 1 16.611 16.413 7.026
639 1 4.147 22.498 24.518
640 1 12.327 16.064 14.756
641 1 13.534 8.330 20.619
642 1 0.488 10.105 5.558
643 1 17.600 21.937 10.164
644 1 18.074 13.828 13.173
645 1 1.902 16.555 18.368
646 1 7.197 5.002 16.955
647 1 0.002 24.502 20.461
648 1 5.565 10.970 7.838
649 1 14.264 17.395 20.254
650 1 16.078 4.450 8.107
651 1 20.398 20.116 16.469
652 1 9.768 2.097 23.195
653 1 22.155 14.597 24.513
654 1 13.916 2.060 11.147
655 1 14.061 6.485 11.771
656 1 19.107 -0.009 16.290
657 1 20.789 24.502 6.478
658 1 13.030 3.851 13.342
659 1 10.140 13.331 19.406
660 1 13.323 11.681 3.039
661 1 0.835 5.670 8.284
662 1 23.860 12.631 18.369
663 1 10.376 18.899 1.362
664 1 3.736 16.692 2.359
665 1 21.534 17.181 3.925
666 1 5.729 24.515 5.748
667 1 11.615 2.475 0.414
668 1 18.401 4.149 5.007
669 1 21.119 20.334 18.571
670 1 2.167 6.608 11.887
671 1 7.750 24.498 7.302
672 1 4.557 5.413 7.694
673 1 10.932 22.434 17.207
674 1 18.813 1.585 4.344
675 1 19.526 24.506 2.231
676 1 14.231 3.310 18.652
677 1 1.375 6.374 24.501
678 1 10.754 0.249 6.410
679 1 4.951 0.946 -0.003
680 1 9.349 0.936 12.816
681 1 5.142 16.662 17.378
682 1 7.587 2.943 17.630
683 1 20.626 7.665 8.562
684 1 21.365 17.879 10.851
685 1 22.335 9.726 2.452
686 1 24.500 19.662 10.446
687 1 10.307 2.240 7.906
688 1 21.303 19.460 12.378
689 1 5.144 15.352 8.835
690 1 11.914 17.674 6.683
691 1 21.012 21.012 14.309
692 1 11.854 7.021 5.760
693 1 16.475 15.434 18.835
694 1 21.017 10.725 11.205
695 1 19.846 0.021 21.994
696 1 7.727 3.090 1.857
697 1 11.260 16.799 17.453
698 1 1.762 24.512 21.885
699 1 16.594 0.873 20.987
700 1 17.155 0.531 15.432
701 1 17.259 11.721 4.651
702 1 16.476 4.029 15.145
703 1 23.998 19.586 7.141
704 1 2.155 3.587 0.279
705 1 20.693 18.965 1.929
706 1 3.242 8.871 20.059
707 1 14.788 4.432 21.874
708 1 -0.002 20.641 16.083
709 1 -0.002 21.437 6.954
710 1 -0.003 12.048 11.455
711 1 21.877 4.710 23.058
712 1 11.990 19.622 3.035
713 1 18.024 3.846 13.592
714 1 9.871 8.964 1.640
715 1 14.008 16.655 16.344
716 1 8.857 1.226 14.940
717 1 18.541 15.968 12.981
718 1 23.179 22.922 7.622
719 1 23.167 21.915 0.519
720 1 18.388 19.367 16.957
721 1 5.822 3.883 6.747
722 1 12.687 5.802 10.091
723 1 21.272 17.210 24.502
724 1 9.084 2.894 11.848
725 1 23.254 18.914 16.651
726 1 23.350 9.391 10.902
727 1 24.528 11.977 11.730
728 1 24.501 20.698 15.704
729 1 12.317 14.604 17.401
730 1 8.725 3.014 4.909
731 1 3.459 5.107 20.387
732 1 17.973 7.247 11.340
733 1 22.431 15.581 17.325
734 1 4.724 13.183 15.889
735 1 10.765 9.838 16.142
736 1 14.476 5.608 13.817
737 1 3.546 24.445 5.490
738 1 5.301 3.849 14.404
739 1 7.630 2.358 13.507
740 1 1.219 8.414 23.573
741 1 2.553 21.892 5.025
742 1 10.255 3.875 24.393
743 1 14.468 14.474 16.957
744 1 19.789 18.380 8.945
745 1 9.863 10.332 22.058
746 1 24.521 18.327 22.659
747 1 11.661 7.748 10.143
748 1 10.155 1.368 4.614
749 1 13.010 20.178 17.288
750 1 15.997 18.097 0.347
751 1 4.070 18.846 14.031
752 1 12.720 0.871 7.330
753 1 21.636 6.894 15.432
754 1 1.416 3.682 12.914
755 1 19.137 2.186 24.238
756 1 6.799 19.610 8.792
757 1 16.106 11.593 19.276
758 1 16.482 11.138 10.002
759 1 16.576 18.722 2.375
760 1 13.126 19.328 -0.006
761 1 11.015 18.365 4.585
762 1 9.786 17.455 22.539
763 1 18.386 12.199 14.611
764 1 20.430 5.597 20.697
765 1 21.915 24.500 20.302
766 1 -0.004 8.445 18.131
767 1 15.501 7.562 24.500
768 1 10.615 9.216 3.694
769 1 12.442 17.679 10.322
770 1 19.781 23.538 4.595
771 1 20.760 1.884 3.364
772 1 15.731 5.039 24.030
773 1 1.916 5.127 16.870
774 1 14.059 12.428 -0.004
775 1 22.350 18.630 20.144
776 1 19.766 21.204 23.048
777 1 9.363 11.367 -0.013
778 1 8.955 12.654 21.447
779 1 7.028 3.047 15.504
780 1 21.565 21.534 11.693
781 1 9.577 8.316 14.951
782 1 13.810 9.444 15.232
783 1 19.099 22.531 21.312
784 1 17.784 0.920 22.836
785 1 12.972 10.203 17.119
786 1 20.374 8.683 3.495
787 1 8.050 23.822 15.218
788 1 18.928 16.739 15.004
789 1 3.870 17.694 18.833
790 1 19.930 9.099 10.214
791 1 6.448 9.148 23.673
792 1 23.340 13.525 20.654
793 1 15.138 4.148 5.417
794 1 9.564 23.293 10.266
795 1 8.411 6.823 22.925
796 1 6.854 21.058 24.516
797 1 7.119 14.931 21.904
798 1 23.521 22.552 20.325
799 1 4.053 9.303 18.061
800 1 22.550 19.529 14.667
801 1 2.849 13.568 21.853
802 1 13.238 12.725 8.500
803 1 0.008 21.906 23.676
804 1 22.384 12.420 11.512
805 1 1.134 11.347 7.340
806 1 10.706 9.699 10.492
807 1 17.507 1.950 17.130
808 1 3.496 22.707 6.838
809 1 8.697 5.611 2.195
810 1 14.128 12.158 11.553
811 1 20.519 17.603 19.484
812 1 3.523 8.446 10.782
813 1 4.765 20.151 7.619
814 1 14.099 22.257 21.473
815 1 7.000 24.320 3.964
816 1 8.570 8.348 24.503
817 1 20.436 8.980 5.674
818 1 15.375 20.806 0.031
819 1 23.796 2.020 0.043
820 1 4.897 24.505 2.157
821 1 8.146 24.241 17.509
822 1 7.143 -0.003 18.485
823 1 23.189 5.587 18.676
824 1 8.980 9.480 19.351
825 1 5.603 4.711 9.865
826 1 12.661 3.204 16.845
827 1 16.819 16.590 2.852
828 1 6.341 18.875 24.483
829 1 21.010 17.060 7.141
830 1 9.081 6.119 16.742
831 1 24.134 14.079 11.216
832 1 21.885 6.467 0.517
833 1 18.391 13.554 23.869
834 1 18.649 13.904 17.778
835 1 19.338 17.085 17.469
836 1 11.691 8.714 14.493
837 1 3.701 19.971 15.885
838 1 6.085 22.391 21.032
839 1 19.847 20.135 10.269
840 1 14.750 3.129 24.508
841 1 8.161 10.549 15.264
842 1 13.191 23.220 0.642
843 1 5.746 19.347 3.587
844 1 5.348 3.221 12.202
845 1 19.571 22.244 11.091
846 1 19.670 1.415 7.433
847 1 9.011 13.093 17.055
848 1 7.944 12.021 19.594
849 1 8.750 13.284 0.873
850 1 13.252 4.589 20.291
851 1 22.637 8.472 22.498
852 1 21.657 1.864 22.753
853 1 10.294 14.671 -0.004
854 1 9.186 3.710 21.375
855 1 10.472 12.719 2.138
856 1 10.887 4.940 17.524
857 1 9.733 15.470 2.064
858 1 15.826 17.249 17.774
859 1 15.925 24.503 8.127
860 1 3.075 16.148 20.181
861 1 3.982 24.565 20.488
862 1 12.793 1.321 18.377
863 1 1.677 8.005 21.373
864 1 19.333 9.360 7.888
865 1 21.060 22.363 6.916
866 1 18.281 20.403 8.600
867 1 6.859 23.037 18.813
868 1 16.740 20.485 4.749
869 1 23.324 3.907 24.507
870 1 12.292 12.735 10.487
871 1 1.545 12.126 18.980
872 1 14.693 13.782 13.446
873 1 7.998 -0.004 11.357
874 1 19.699 19.596 -0.000
875 1 2.640 14.039 11.152
876 1 10.085 8.213 22.604
877 1 19.010 -0.003 24.412
878 1 7.603 14.462 2.576
879 1 6.298 -0.002 9.962
880 1 17.757 4.895 21.508
881 1 7.601 4.737 5.775
882 1 20.416 0.157 5.282
883 1 17.631 20.529 23.123
884 1 13.415 1.949 1.844
885 1 3.634 12.071 19.666
886 1 16.397 9.650 12.560
887 1 13.296 23.025 5.286
888 1 20.631 18.978 23.360
889 1 13.870 15.935 22.421
890 1 16.535 22.393 16.633
891 1 17.349 11.084 23.140
892 1 22.414 9.353 24.501
893 1 10.453 11.134 20.095
894 1 4.109 11.095 15.560
895 1 4.228 23.219 22.208
896 1 16.572 5.778 12.187
897 1 7.163 3.614 10.961
898 1 18.157 5.677 1.474
899 1 8.747 20.530 5.246
900 1 10.613 23.972 5.376
901 1 4.437 0.146 16.278
902 1 1.835 22.343 2.030
903 1 4.758 20.389 24.506
904 1 20.388 19.554 20.493
905 1 1.014 24.500 2.762
906 1 17.386 21.293 18.336
907 1 6.832 16.910 21.001
908 1 9.323 8.655 12.793
909 1 6.427 24.501 12.881
910 1 -0.066 19.091 17.928
911 1 3.946 7.176 21.269
912 1 11.450 19.371 24.176
913 1 21.335 10.883 5.035
914 1 10.603 5.366 15.161
915 1 23.729 8.371 18.286
916 1 14.139 24.271 10.335
917 1 13.432 5.489 5.796
918 1 3.395 15.343 17.164
919 1 16.589 2.298 19.121
920 1 0.718 18.004 19.676
921 1 9.681 20.548 2.707
922 1 0.269 0.018 6.794
923 1 20.055 3.431 16.147
924 1 19.328 10.156 23.817
925 1 14.249 10.454 18.970
926 1 4.949 18.884 17.333
927 1 17.690 9.880 14.325
928 1 15.019 0.766 14.964
929 1 18.251 20.237 12.112
930 1 20.576 10.857 18.663
931 1 20.600 13.508 8.258
932 1 7.581 8.754 14.132
933 1 13.300 12.190 19.931
934 1 12.481 18.235 16.237
935 1 13.437 4.854 15.611
936 1 5.377 2.360 3.612
937 1 15.492 9.886 0.049
938 1 17.238 9.769 8.454
939 1 12.376 16.078 8.814
940 1 8.945 15.164 23.107
941 1 3.723 14.237 19.315
942 1 18.287 19.383 19.155
943 1 6.315 21.415 12.301
944 1 6.513 20.158 20.578
945 1 2.835 22.073 18.976
946 1 3.717 20.079 18.703
947 1 10.844 6.517 7.732
948 1 14.418 23.833 19.048
949 1 5.266 7.420 23.007
950 1 2.479 3.936 15.108
951 1 12.195 10.849 14.658
952 1 4.619 17.828 23.622
953 1 15.641 13.408 4.275
954 1 19.080 7.243 22.021
955 1 7.985 19.204 23.062
956 1 6.434 22.644 16.404
957 1 4.226 1.350 2.033
958 1 6.733 13.240 -0.004
959 1 6.683 20.687 17.394
960 1 18.410 17.620 7.408
961 1 23.592 6.877 5.369
962 1 7.498 7.319 15.797
963 1 13.924 4.186 7.498
964 1 22.285 7.183 19.878
965 1 2.132 12.067 11.985
966 1 10.113 -0.004 23.749
967 1 11.147 12.347 13.331
968 1 9.850 18.570 6.440
969 1 22.525 24.505 12.967
970 1 17.047 7.125 2.781
971 1 9.449 11.405 9.899
972 1 10.557 6.757 1.707
973 1 0.943 17.259 24.396
974 1 4.518 24.506 7.584
975 1 14.743 19.961 21.215
976 1 3.087 16.072 22.371
977 1 5.428 15.752 24.511
978 1 9.670 20.614 0.179
979 1 5.260 5.466 21.690
980 1 11.107 17.337 -0.003
981 1 0.168 17.667 3.717
982 1 9.191 16.394 6.712
983 1 8.869 13.378 10.918
984 1 17.151 14.697 21.927
985 1 8.454 14.356 7.090
986 1 11.501 14.067 8.650
987 1 2.569 13.494 0.163
988 1 1.553 24.519 16.101
989 1 20.137 22.641 15.478
990 1 22.572 19.833 0.122
991 1 4.500 12.140 3.374
992 1 7.747 21.698 22.301
993 1 8.231 11.523 8.070
994 1 22.012 14.479 15.183
995 1 8.868 20.505 7.643
996 1 18.230 13.428 7.716
997 1 2.100 8.172 7.532
998 1 21.684 20.926 1.812
999 1 24.500 1.391 5.152
1000 1 23.138 0.556 24.501
1001 1 11.252 19.580 13.431
1002 1 1.391 20.910 22.021
1003 1 17.802 16.889 -0.002
1004 1 21.693 22.453 19.107
1005 1 17.610 9.336 10.753
1006 1 16.632 6.348 14.750
1007 1 9.433 13.988 3.699
1008 1 5.686 2.769 21.635
1009 1 18.022 14.708 11.048
1010 1 6.766 12.860 21.252
1011 1 16.611 10.188 17.661
1012 1 0.293 19.023 5.445
1013 1 12.293 13.758 -0.005
1014 1 1.534 10.069 22.120
1015 1 9.501 21.789 15.668
1016 1 17.282 18.733 21.000
1017 1 5.649 12.899 19.358
1018 1 2.953 -0.003 3.898
1019 1 1.712 22.273 8.050
1020 1 20.118 8.103 23.761
1021 1 14.330 15.886 18.641
1022 1 6.057 22.683 23.306
1023 1 2.929 1.498 15.417
1024 1 4.181 15.609 11.177
1025 1 16.849 5.318 6.155
1026 1 15.467 22.753 11.239
1027 1 13.233 24.272 21.251
1028 1 13.635 12.577 14.955
1029 1 18.528 12.800 1.067
1030 1 6.616 0.680 20.783
1031 1 -0.003 5.430 3.282
1032 1 24.501 23.656 0.691
1033 1 14.375 19.730 14.013
1034 1 22.374 0.789 8.165
1035 1 9.199 -0.005 19.853
1036 1 -0.002 18.860 8.182
1037 1 18.542 21.507 16.477
1038 1 3.297 16.258 5.480
1039 1 0.247 16.908 10.882
1040 1 10.780 20.003 15.547
1041 1 19.421 11.087 21.257
1042 1 13.935 11.007 9.687
1043 1 5.043 13.476 10.007
1044 1 12.053 3.314 18.956
1045 1 13.981 9.475 5.427
1046 1 10.716 -0.003 21.632
1047 1 14.539 9.146 1.899
1048 1 12.862 1.071 14.572
1049 1 20.900 16.696 1.087
1050 1 11.878 7.155 -0.006
1051 1 13.919 2.606 21.002
1052 1 24.501 15.346 16.615
1053 1 8.066 14.603 19.376
1054 1 12.880 1.051 5.144
1055 1 15.951 20.665 9.481
1056 1 14.384 21.230 15.623
1057 1 6.316 11.156 24.533
1058 1 0.060 23.338 0.582
1059 1 8.536 15.117 15.426
1060 1 3.075 18.823 5.788
1061 1 18.031 8.108 15.584
1062 1 20.370 24.264 10.746
1063 1 14.736 -0.005 7.421
1064 1 6.757 21.489 4.259
1065 1 0.111 2.617 14.330
1066 1 0.117 10.287 20.450
1067 1 13.617 13.825 2.601
1068 1 24.503 9.357 2.493
1069 1 11.638 16.296 4.989
1070 1 14.234 2.820 15.356
1071 1 11.835 0.723 3.236
1072 1 5.228 20.331 10.354
1073 1 19.645 5.987 15.214
1074 1 19.373 21.258 19.539
1075 1 8.256 23.962 20.730
1076 1 17.051 0.149 12.020
1077 1 20.228 1.198 1.343
1078 1 4.876 22.498 11.040
1079 1 10.127 6.736 13.506
1080 1 17.016 4.474 18.109
1081 1 20.145 4.170 14.077
1082 1 0.811 11.697 13.712
1083 1 3.852 8.918 8.633
1084 1 8.170 19.929 18.825
1085 1 14.171 10.157 21.739
1086 1 24.501 10.275 7.548
1087 1 15.985 20.763 12.275
1088 1 21.210 6.809 22.358
1089 1 5.480 21.343 19.044
1090 1 3.772 24.501 17.191
1091 1 24.508 9.836 15.564
1092 1 10.636 22.578 7.966
1093 1 15.177 13.620 6.570
1094 1 17.841 23.515 6.352
1095 1 4.914 11.325 18.010
1096 1 4.488 -0.000 18.832
1097 1 14.388 4.314 11.619
1098 1 8.425 10.780 5.784
1099 1 11.061 9.655 -0.035
1100 1 22.563 6.027 3.536
1101 1 11.219 2.138 15.572
1102 1 24.501 6.812 7.371
1103 1 24.077 20.534 21.330
1104 1 8.196 20.871 10.047
1105 1 8.519 7.523 20.295
1106 1 4.695 23.352 18.811
1107 1 11.733 24.503 9.284
1108 1 6.282 24.324 9.142
1109 1 16.081 5.583 4.017
1110 1 12.359 24.108 17.235
1111 1 20.021 13.685 14.367
1112 1 2.930 23.486 3.555
1113 1 6.804 3.633 19.624
1114 1 22.400 18.476 5.787
1115 1 13.851 7.661 9.923
1116 1 12.651 19.833 5.788
1117 1 6.661 5.518 14.852
1118 1 0.483 24.540 18.015
1119 1 3.698 5.265 18.151
1120 1 10.543 8.724 8.519
1121 1 11.679 1.581 20.256
1122 1 9.306 22.419 6.223
1123 1 2.081 18.732 18.121
1124 1 13.564 8.304 12.902
1125 1 1.195 13.394 24.501
1126 1 22.724 2.550 4.568
1127 1 6.222 22.800 2.579
1128 1 10.186 22.924 19.218
1129 1 24.505 23.769 13.581
1130 1 2.085 19.647 20.196
1131 1 11.917 10.271 12.238
1132 1 10.471 8.999 5.877
1133 1 18.272 18.520 10.561
1134 1 18.465 2.462 8.947
1135 1 9.736 12.535 5.975
1136 1 11.928 19.848 19.175
1137 1 22.278 19.839 10.442
1138 1 19.939 10.797 13.118
1139 1 24.355 15.394 21.219
1140 1 3.011 10.076 5.667
1141 1 15.106 22.563 8.761
1142 1 17.892 12.643 21.651
1143 1 6.731 14.058 16.096
1144 1 3.225 10.868 7.827
1145 1 18.274 16.535 9.614
1146 1 17.592 16.833 22.285
1147 1 14.694 18.719 6.838
1148 1 13.032 24.309 23.441
1149 1 16.707 11.777 -0.000